/*--------------------------------*- C++ -*----------------------------------*\
| =========                 |                                                 |
| \\      /  F ield         | OpenFOAM: The Open Source CFD Toolbox           |
|  \\    /   O peration     | Version:  v2012                                 |
|   \\  /    A nd           | Website:  www.openfoam.com                      |
|    \\/     M anipulation  |                                                 |
\*---------------------------------------------------------------------------*/
FoamFile
{
    version     2.0;
    format      ascii;
    class       volScalarField;
    location    "50";
    object      nut;
}
// * * * * * * * * * * * * * * * * * * * * * * * * * * * * * * * * * * * * * //

dimensions      [0 2 -1 0 0 0 0];


internalField   nonuniform List<scalar> 
15000
(
0.0134142765253
0.013414247498
0.0134142362765
0.0134143546789
0.0134143938469
0.0134143400502
0.0134152383633
0.0134242384996
0.0134193757111
0.0135507527507
0.0134099572209
0.0134100083379
0.0134099784231
0.013409827092
0.0134097397506
0.0134099462442
0.0134101593775
0.0133961398136
0.0134399925925
0.0137077815941
0.0134054415974
0.0134055553386
0.0134056817354
0.0134059451387
0.0134063129327
0.0134062410049
0.0134051314009
0.0134257315115
0.0135112144838
0.0138742456481
0.0134014633366
0.0134013693375
0.0134012508449
0.0134011044949
0.0134008736621
0.0134008754429
0.0134040931232
0.0133936017207
0.0136023208182
0.0140679266307
0.0133967437547
0.0133969781848
0.0133971675005
0.0133974388984
0.0133980506966
0.0133987522298
0.0133954372076
0.0134499211503
0.0139202664885
0.0142818143221
0.0133932186985
0.013392976665
0.0133927398769
0.013392531663
0.0133921015273
0.0133911879179
0.0134025930264
0.0134986582508
0.0142097199707
0.0145387896334
0.0133881287322
0.0133884858838
0.013388751705
0.0133890090899
0.013389824223
0.0133926683055
0.0133978950645
0.0135723436597
0.0145344310577
0.0148134875451
0.0133849070643
0.0133846211089
0.0133843361767
0.0133839359405
0.0133832770496
0.0133819636463
0.0133976944239
0.0136517657092
0.0147884378084
0.0150572154886
0.0133798635347
0.0133801997674
0.0133803842616
0.0133807865615
0.0133820079384
0.0133874679982
0.0134213991601
0.0138026187488
0.0151368953157
0.0153958599373
0.0133765747311
0.0133763092763
0.0133761063298
0.0133754749525
0.0133747736896
0.0133767484292
0.0134598510458
0.0139118774791
0.0153786090978
0.0155330624804
0.0133712729109
0.0133716114022
0.0133717508092
0.0133724864893
0.013374594386
0.0133898779779
0.0134986343981
0.0141670893867
0.0157104141189
0.0159193573389
0.013369117311
0.0133686768911
0.0133684111292
0.013367256576
0.0133671204198
0.0133782783638
0.0135482997772
0.0143706283116
0.0160067986168
0.0163622358085
0.0133620399053
0.0133626738889
0.0133630803335
0.0133647594766
0.0133695634455
0.0133881726642
0.013622349265
0.0147659740329
0.0163261323904
0.01681373985
0.0133625962862
0.013361745057
0.0133612486695
0.0133596126698
0.0133597198496
0.0133918774886
0.0137131834085
0.0151137660455
0.0166978926278
0.0173152750591
0.0133527347096
0.0133537761144
0.0133546278353
0.0133569787121
0.0133667876983
0.0134294659172
0.0138056839962
0.015487009084
0.017033829618
0.0177572358548
0.0133557926534
0.0133545835916
0.0133537906781
0.0133532018692
0.013357877095
0.0134639076257
0.0139899859913
0.0158520345833
0.0174859670813
0.0183996047171
0.0133447599064
0.0133461173286
0.0133482129796
0.0133515069567
0.0133767023609
0.0135007248785
0.0141323978648
0.0161965276312
0.0178425637835
0.0188558828505
0.0133482611618
0.0133467053217
0.0133450711005
0.0133474837693
0.0133599065275
0.0135454925977
0.0143506381485
0.0166152798296
0.018359264487
0.0196785842186
0.0133373796204
0.0133395016609
0.0133437015951
0.0133469792208
0.0133677422352
0.0135997508254
0.0145432972545
0.0169646062745
0.0188370245103
0.0204570823758
0.0133399499432
0.0133382673691
0.0133358465813
0.0133419706694
0.0133823112365
0.013662778164
0.0147974416023
0.0174232397543
0.0193624160374
0.0213592871913
0.0133326220835
0.013335566641
0.0133405539926
0.013345991576
0.013389882168
0.0137466368566
0.015054624618
0.0178296894164
0.0200904949121
0.0229212081096
0.0133266619901
0.0133258323065
0.0133262358563
0.0133375013933
0.0134378768925
0.0138392288219
0.0154414768406
0.0183166259126
0.020664147331
0.0240440962727
0.013327129544
0.0133308850205
0.0133337693935
0.0133514868054
0.013464703911
0.013976491934
0.0158411618965
0.0188363090198
0.0215456208438
0.0269600732967
0.013317678314
0.013318090405
0.0133237169286
0.0133410373125
0.0134984079473
0.0141231287817
0.0163642934126
0.0196989159358
0.0236664220517
0.0287922013768
0.01334147427
0.0133474035928
0.0133527047641
0.0133569776326
0.0135498675506
0.0143439056656
0.0168026017399
0.0204948222812
0.0248972729779
0.0360563781929
0.0133871583259
0.0133872823459
0.013401231461
0.0134262059702
0.0136341339259
0.0145801878642
0.0177520132433
0.0229231214784
0.0284542768063
0.036443297955
0.0134944602509
0.0135008163597
0.0135109792736
0.0135660051497
0.0138392080046
0.0150836121679
0.0195334052211
0.0234042170237
0.0284367651089
0.0368760295706
0.0136478788595
0.0136494204149
0.0136558519206
0.0137547985018
0.0142105071131
0.016111520884
0.020216797204
0.0237599000728
0.0284623308128
0.0368462699351
0.0138340641107
0.013834151419
0.0138390274066
0.0139834070612
0.0146621486711
0.0166222387112
0.0204870417075
0.0239149636602
0.0283414231221
0.0364865759828
0.0140312956041
0.0140350299664
0.0140339816832
0.0142038238565
0.0149737032543
0.0170130489819
0.0206439161793
0.0238584431632
0.0279864020981
0.0358579202299
0.0143003298984
0.0142730512973
0.014273940164
0.0144290785988
0.0152702320059
0.0174353648218
0.0207140491008
0.0236470961257
0.0275086986634
0.0350114509041
0.0144980801052
0.0144755654069
0.0144627859671
0.0147030245316
0.0155704531144
0.0178738423444
0.020671290525
0.0232933528825
0.026825995413
0.0339643639423
0.0147622221069
0.0147402490116
0.0147435342874
0.0149363161861
0.0158395489466
0.0181532912696
0.0205369688575
0.022812094005
0.0260188982201
0.0326371044542
0.0150735231448
0.0150340144568
0.0150189335733
0.0152529240785
0.0161701125381
0.0182481077857
0.0202678979713
0.022252986829
0.0251519014093
0.0314704191887
0.0155007177451
0.0154801722856
0.015414747201
0.0155383049312
0.0164212288812
0.0184336061171
0.0199954173676
0.0216063874293
0.0242357077887
0.0300973126847
0.0161975126138
0.0161491144517
0.0160512287599
0.0165604921143
0.0172094753883
0.0184490832158
0.0198489938096
0.0211790577575
0.0234943838291
0.0287733432437
0.0171043804696
0.0170026156091
0.0168936893186
0.0177284048125
0.0187343120976
0.0187648230355
0.0194918294306
0.0205938337459
0.0226280664387
0.0281229686251
0.0181285232412
0.0180846183667
0.0181102010764
0.0187145258412
0.0195954815457
0.0193357831295
0.0197671982522
0.0206109161805
0.0231763807206
0.0276038466113
0.0191447765928
0.0190916671467
0.0191516733564
0.0195240014886
0.0202132005354
0.0201451226159
0.0205612641384
0.0210092883835
0.0240033668303
0.0269233920641
0.0199351659777
0.0198946417865
0.0200165337432
0.0206661836079
0.0210797920416
0.0209487747241
0.021260634156
0.0225029913376
0.0244029489491
0.0272530860774
0.0206800948067
0.0205266594469
0.0206169241212
0.0211880034108
0.0218157363656
0.0215282393123
0.0218671529812
0.0230668708177
0.0240635342118
0.0268861476195
0.021116267681
0.0210830340397
0.0210474899117
0.0214682855523
0.021944665959
0.022250996381
0.0219970498472
0.0228407897101
0.0244298170049
0.0259782969054
0.0213354491672
0.021391346729
0.021324683109
0.0215839081285
0.0217929552495
0.0222295525791
0.0220273126834
0.022770349399
0.0239302303777
0.0264195957149
0.0214192475671
0.0214474698315
0.0213564248343
0.0216703709993
0.0220049886238
0.0220734687225
0.0220032348457
0.0227391903475
0.0237806000124
0.0264174009626
0.0213570363108
0.0214341195843
0.0213587979777
0.021659918918
0.0219599472003
0.0217267530178
0.0222080425706
0.0226363639815
0.0237821570122
0.0254081384891
0.0214354884314
0.0214172488874
0.0214952230671
0.0216059692054
0.0219729696329
0.0221825146259
0.0223039256417
0.0227585827863
0.0243168686842
0.0260969181052
0.0219566775382
0.0217567240042
0.0216043312121
0.0217915415628
0.0219777093946
0.0219305422637
0.0223911021159
0.0229606054389
0.024262243754
0.0260180488821
0.0226985107329
0.0225624790671
0.0223273480547
0.0221027169594
0.0220219978859
0.0223310652579
0.0225820206736
0.0228795665839
0.0239252297261
0.0258633987468
0.0237892371747
0.0236171371434
0.0233118954036
0.0230061962349
0.0227814061419
0.0226822832499
0.0227452872569
0.0231189205666
0.0243317410116
0.0259440246921
0.0250680515106
0.0248925243961
0.0246127024949
0.0242698386038
0.0239360474144
0.0237044484129
0.0235622692148
0.0236246956667
0.0242406921749
0.0260018762988
0.0265450992523
0.0263225684583
0.0259661107847
0.0255884071054
0.0252290642186
0.0248827704609
0.0247027964688
0.0246504587834
0.0249385047513
0.0255799657843
0.0282408653746
0.0279983239733
0.0276394141616
0.0272135286878
0.0267785995736
0.0263944650962
0.026091615775
0.0259356187102
0.0259481284732
0.026322032635
0.0300693719759
0.0297699639042
0.0293188948023
0.0288656006651
0.0284165185694
0.0279327900506
0.0275710000051
0.0273590953472
0.0273568117971
0.0274369402036
0.0320042412489
0.031682252542
0.0312211757043
0.0306973971269
0.0301845369099
0.0297422932006
0.0293526195518
0.029046336885
0.0287900722023
0.0287196518355
0.0340076193048
0.0336343433244
0.03308719589
0.0325676879155
0.0320254698193
0.031403996014
0.0308975168685
0.0306204654741
0.0305425150528
0.0304409702159
0.0359493615542
0.0355871542154
0.0350617195385
0.0344399034686
0.0338586370409
0.033385880194
0.0328457590858
0.0324821389389
0.0321235876644
0.0318442837328
0.0379191834727
0.0374841240132
0.0368539241747
0.0363134361641
0.0357089041148
0.0349927438466
0.0344893823069
0.0340295479322
0.0338469092361
0.0335865852184
0.039647029315
0.0392934963819
0.0387606003577
0.0380870835051
0.0374391169676
0.0369363242219
0.0363159445883
0.0358493384009
0.0353429258208
0.0349451034486
0.0413134404592
0.0408115970614
0.0401697030579
0.0397494062268
0.0389672348309
0.0381216211613
0.0377009589544
0.0372221015383
0.0370537939939
0.0367761389361
0.0429718242896
0.0427860659857
0.0426172458107
0.0416948849881
0.0405029411505
0.0400295703938
0.0394586458307
0.0392146598188
0.0385302202176
0.038275765304
0.0440028232765
0.0437513341716
0.0430185420432
0.0426266560547
0.0421287384022
0.0409633666388
0.0408284636628
0.0403084405035
0.0404233213649
0.0400298575978
0.044042163369
0.0438437477173
0.0436712129122
0.0431968113695
0.0423973163787
0.0422966173318
0.0412415264565
0.0412411297902
0.0405232802118
0.0403975346623
0.0442550598126
0.0440269745371
0.0436032176041
0.043154850206
0.0428067515308
0.042203199117
0.0418787451565
0.0412151777832
0.040766943438
0.0407383401961
0.0442047583017
0.0440038088076
0.0436675891836
0.043247874092
0.0427841360734
0.0423091057503
0.0418476366881
0.0414493296328
0.0413654096582
0.0413599736564
0.0439205191583
0.0437517395797
0.0434738784843
0.0431038446695
0.0426812991264
0.0422521808003
0.041835462001
0.0414740383799
0.0412155937157
0.0411715584329
0.0433724743752
0.0432340149203
0.0430141580058
0.0427029642582
0.0423392323386
0.041969740872
0.0416150315927
0.0413154602352
0.0410950124485
0.041315056493
0.0425723989719
0.0424615808212
0.0422953821961
0.0420439881766
0.0417468546857
0.0414536088157
0.0411946487224
0.0410229924907
0.0410447896724
0.0414025587662
0.0415477199138
0.041458979613
0.0413384100839
0.0411409145217
0.0409091964055
0.0406951877169
0.0405358289675
0.0405140543508
0.0408038548664
0.041435900181
0.040329663828
0.04025678174
0.0401685082164
0.040010534271
0.039831823814
0.0396948127019
0.0396422870396
0.0398788192023
0.0404328831236
0.0412490501929
0.0389593566077
0.0388932569013
0.038818926757
0.038675278956
0.0385177231431
0.0384191109844
0.03857121786
0.0390483884818
0.0398087295606
0.0408281142201
0.0374815774802
0.0374131500668
0.0373307072222
0.0371673966572
0.0369748547749
0.0369143591391
0.0372319547439
0.0379448750631
0.0389157043132
0.0401835673521
0.0359544348532
0.0358750664239
0.0357631333011
0.0355393812434
0.0353410069065
0.035371236898
0.0357768473459
0.0366275828896
0.0378362764491
0.0393296037616
0.0344428258877
0.0343538445035
0.0342163380417
0.0339473022824
0.0337697613186
0.0338530316639
0.0343128548797
0.0352480610016
0.0365975093107
0.0382762189818
0.0329904423059
0.0328959610383
0.0327453720751
0.0324605059457
0.0322969297032
0.032407578685
0.0328932574892
0.0338627927691
0.0352626854297
0.0370645069783
0.0316122907273
0.0315157686679
0.031359900639
0.0310725628869
0.0309189395023
0.0310411949775
0.0315315029522
0.0325019972158
0.0339097949843
0.035750874696
0.0303082906099
0.0302110798168
0.0300536028121
0.0297687981326
0.0296216468332
0.0297451058946
0.0302245552035
0.0311703685394
0.0325459106796
0.0343558202206
0.0290714528773
0.0289743380796
0.028816213817
0.0285343603269
0.0283908056407
0.0285087037198
0.0289669185696
0.0298705063952
0.031185872319
0.0329208149394
0.0278944972649
0.027797307728
0.0276383177516
0.0273581448277
0.0272160716495
0.0273247958849
0.0277562462368
0.0286077887151
0.0298464300731
0.0314785310518
0.0267693311624
0.0266723166669
0.0265121914415
0.0262322949862
0.0260911934802
0.0261899646309
0.0265934571832
0.0273906909036
0.0285489420248
0.0300749083632
0.0256918566726
0.0255946878272
0.0254330505494
0.025152890831
0.0250134091748
0.0251036756825
0.0254813527928
0.0262277428743
0.027311119523
0.0287400917744
0.0246413443729
0.0245518805708
0.024392636253
0.0241155206874
0.0239810283134
0.0240660296737
0.0244216859871
0.0251227953926
0.0261387491333
0.0274804212808
0.0236475298519
0.0235510041021
0.0233833336197
0.0231189007176
0.0229943849379
0.0230778749753
0.0234153858028
0.0240764112874
0.0250311363712
0.0262915154326
0.0226415861318
0.0225763546075
0.0224038716117
0.0221655877485
0.0220557319895
0.0221404748052
0.022462824395
0.0230879505792
0.0239863481054
0.0251699568926
0.0217416353616
0.0216687620674
0.0214874752236
0.0212664578574
0.0211687977854
0.0212554626131
0.0215649978005
0.022156536538
0.0230025637349
0.0241134939563
0.0208581964022
0.0208072591427
0.0206272387069
0.020421285431
0.0203359185289
0.0204256420314
0.020723647533
0.0212826727847
0.0220789328311
0.023120901965
0.0200579031971
0.0200027444396
0.0198153035379
0.0196128497378
0.0195203843587
0.0196146518285
0.0199229221091
0.0204604845115
0.0212119744905
0.0221895812081
0.0192761448732
0.0192381864417
0.0190500761859
0.018856784211
0.0187710768866
0.0188707410293
0.0191755155613
0.0196886864439
0.0203997087034
0.0213175784678
0.0185648544586
0.018528265536
0.0183383072476
0.0181558906942
0.01808115876
0.0181844615925
0.0184815201695
0.0189694102229
0.0196420618986
0.0205042611811
0.0178689241384
0.0178568716546
0.0176726879898
0.0175050498836
0.0174431918837
0.017549659334
0.017837941457
0.0183010020524
0.0189371912006
0.0197474579621
0.0172362352003
0.0172325841206
0.017053297037
0.0169005452965
0.0168516120212
0.016960998442
0.0172404798619
0.01767983252
0.0182815287234
0.0190433673751
0.0166182966918
0.0166373321503
0.0164708138145
0.0163362430151
0.0163011436484
0.0164135293479
0.0166845509926
0.0171014929952
0.0176705269923
0.0183870162541
0.0160472101306
0.0160690710665
0.0159236745845
0.0158091289027
0.0157879424792
0.0159032286521
0.0161660940052
0.0165619497211
0.0171000967101
0.0177740419545
0.0154911561362
0.0155238682847
0.0154084853092
0.0153160407471
0.0153087785274
0.0154266737538
0.0156815285634
0.0160575042589
0.0165663306941
0.0172001708125
0.0149912546208
0.0150199377366
0.0149292711263
0.0148562746076
0.0148613603323
0.0149811278529
0.0152278666184
0.0155849738392
0.0160658908784
0.0166618500874
0.0145165679734
0.0145499687584
0.0144809405818
0.0144265764165
0.0144430191952
0.0145639467244
0.0148023774479
0.0151416143688
0.015596135796
0.0161568228311
0.0140931023589
0.0141179423384
0.0140615177858
0.0140252623454
0.014051582454
0.0141726905734
0.0144023731233
0.0147246392352
0.0151539374536
0.0156812214025
0.0136946185678
0.0137199963716
0.013671457606
0.0136510146547
0.0136879204207
0.013808423939
0.0140268758738
0.0143321724007
0.0147371041102
0.0152327157977
0.0133470928446
0.0133634570853
0.0133151316638
0.0132998328858
0.0133450477447
0.0134642128978
0.0136730119845
0.0139619377782
0.014343237872
0.0148084331979
0.0130260502128
0.0130426060009
0.0129933461704
0.012978125186
0.0130234388573
0.013140864143
0.0133393954265
0.0136124340899
0.0139708106673
0.0144070902246
0.0127504702532
0.0127596223141
0.0127089889956
0.0126894559107
0.0127276470344
0.0128359817837
0.0130241353482
0.0132821018075
0.0136178393134
0.0140263131551
0.0124978883429
0.0125080472263
0.0124587871496
0.0124355767943
0.0124659957477
0.0125620785816
0.0127325456895
0.0129699321883
0.0132825479082
0.0136647922729
0.0122826276951
0.0122876552423
0.0122401776295
0.0122155072132
0.0122380842926
0.0123209596723
0.0124716818118
0.0126856405545
0.0129695678016
0.0133207263052
0.0120850966312
0.0120917691328
0.0120476887787
0.0120235504131
0.0120412347301
0.0121118502691
0.0122428692646
0.0124328905198
0.0126857914267
0.0130010554086
0.0119170627434
0.0119200376338
0.0118789096001
0.0118557892258
0.0118701009432
0.0119312064115
0.0120451197997
0.0122124411164
0.012434475633
0.0127123072923
0.0117625980065
0.0117672327507
0.0117297795859
0.0117083474929
0.0117203851083
0.0117739446205
0.0118737814352
0.0120218833258
0.0122158537092
0.0124572736976
0.0116314851739
0.0116333044157
0.0115988355231
0.0115790200785
0.0115893344309
0.0116361825252
0.0117234358248
0.0118548754502
0.0120258562121
0.0122351392783
0.011510854523
0.0115141665295
0.0114831040013
0.0114652807238
0.011474858978
0.0115164101028
0.0115923985645
0.0117083139725
0.0118609630691
0.0120433667302
0.011408506331
0.0114096276896
0.0113812282962
0.0113649841113
0.0113735315854
0.0114105981269
0.0114783280041
0.0115810006843
0.0117163557758
0.0118774323078
0.011313916409
0.0113163097493
0.011290815714
0.0112762423644
0.0112840076654
0.0113173603691
0.011378029481
0.0114686791723
0.0115883254471
0.011730161655
0.011233215518
0.0112339059963
0.0112107109143
0.0111975296995
0.0112045565625
0.0112346453204
0.0112892291803
0.0113699599796
0.0114769565653
0.0116030581444
0.0111578839063
0.0111596536309
0.011138930522
0.0111272087048
0.0111337578398
0.0111612654498
0.0112107911179
0.0112830129293
0.0113789122372
0.0114922533754
0.0110929841178
0.0110934186795
0.0110746375936
0.0110640986936
0.0110700909866
0.0110950500143
0.0111398256178
0.0112051598671
0.011291171897
0.0113937166714
0.0110321467622
0.0110334588249
0.0110166940926
0.0110072999722
0.011012792768
0.011035400257
0.0110760036684
0.0111352608013
0.0112124986539
0.0113048214988
0.0109801477968
0.010980370202
0.0109651525603
0.0109566505854
0.0109615754843
0.0109819636776
0.0110186606731
0.011072370311
0.0111427587833
0.0112265650999
0.010932343415
0.0109332541486
0.0109196221519
0.0109119604891
0.0109163476444
0.0109346287699
0.0109676240058
0.0110160424937
0.0110796309188
0.011155585864
0.0108923238521
0.0108923446778
0.0108799408667
0.0108729499317
0.0108767823723
0.0108931128766
0.0109226869492
0.0109661865997
0.0110234544903
0.011092064713
0.0108556247424
0.0108562227899
0.0108451200911
0.0108388089496
0.0108421849097
0.0108567567717
0.0108832373754
0.0109222894518
0.0109738264249
0.0110357661943
0.0108248123912
0.010824718499
0.010814651926
0.0108089229639
0.0108118814176
0.0108249012089
0.0108486315315
0.010883709283
0.0109301256127
0.0109861039941
0.0107966492952
0.0107970353763
0.0107880498396
0.0107828997046
0.0107855247667
0.010797164775
0.0108184457543
0.0108499902096
0.0108918475005
0.010942523112
0.0107735296024
0.0107733680578
0.0107652318942
0.0107605683256
0.0107628754103
0.0107732900234
0.0107923884779
0.0108207746446
0.0108585652697
0.0109045170377
0.0107524376618
0.0107526823487
0.0107454480844
0.0107412860892
0.010743365172
0.010752711379
0.0107698852251
0.0107954818668
0.0108296689109
0.0108714369602
0.0107344327923
0.0107342837008
0.0107278171421
0.0107241514023
0.0107260855121
0.0107345613844
0.0107500979825
0.0107732771454
0.0108043270347
0.0108424485887
0.0107167979227
0.0107170330466
0.0107114097317
0.0107083049085
0.0107102286855
0.0107180268449
0.0107322058561
0.0107533427368
0.0107817122763
0.010816714049
0.0107011491444
0.0107011129043
0.0106961740326
0.010693601999
0.0106955438907
0.0107027936384
0.010715827104
0.010735215043
0.0107612898275
0.01079363097
0.0106867091056
0.0106869567467
0.010682659237
0.0106804886188
0.0106823847601
0.0106890762975
0.0107010408472
0.0107188554426
0.0107428993957
0.0107729220651
0.0106752852048
0.0106752419798
0.0106713626001
0.0106694047524
0.0106711106572
0.0106771807691
0.0106880839321
0.0107044058877
0.0107265839038
0.0107545201142
0.0106652931297
0.0106654207004
0.0106619254102
0.0106601111053
0.0106615933835
0.0106670352709
0.0106769220137
0.0106918556038
0.0107123190467
0.0107383575557
0.010656812107
0.0106567072518
0.0106535298814
0.0106518569317
0.0106531656319
0.0106580978078
0.0106671275436
0.0106808592326
0.0106998204001
0.0107241789537
0.0106474942387
0.010647545991
0.0106447322063
0.0106432745477
0.0106445900988
0.0106492703412
0.0106577594333
0.0106706328313
0.0106884295079
0.0107114244142
0.010636631749
0.0106364486689
0.0106338786019
0.0106327134272
0.0106343106534
0.0106392286587
0.0106477229422
0.0106602522292
0.0106773527804
0.0106994046819
0.0106242836551
0.0106240601047
0.010621798171
0.010620990392
0.0106231190631
0.0106287012836
0.0106375198416
0.0106499614303
0.0106666124609
0.0106879903143
0.0106167231995
0.010616352595
0.0106145956665
0.0106140462927
0.0106162027536
0.010621579029
0.0106298592599
0.0106415841878
0.0106574147541
0.0106779563235
0.0106153498153
0.010615301713
0.0106138427408
0.0106132457459
0.0106146530206
0.0106186084782
0.0106255243648
0.0106359760319
0.0106506207482
0.0106700835754
0.0106138423676
0.0106137840578
0.010612360446
0.0106117727032
0.010612924026
0.0106163424933
0.0106225169763
0.0106320935537
0.0106457792694
0.0106642564201
0.0106112937316
0.0106113410477
0.0106101422485
0.0106096968093
0.0106108406704
0.0106140752143
0.0106199012049
0.0106289762636
0.0106420219148
0.0106597679659
0.0106082919291
0.0106083025428
0.0106073495792
0.0106071206268
0.010608373819
0.0106116033813
0.0106172992017
0.0106261120368
0.0106387705615
0.0106560373915
0.0106049533823
0.0106051077763
0.0106044490313
0.0106044737222
0.0106058972114
0.0106091923761
0.0106148494139
0.0106235157509
0.0106359214322
0.0106528600829
0.0106025672708
0.0106027038907
0.010602251315
0.010602467665
0.0106040048543
0.010607327884
0.0106129176725
0.0106214189998
0.01063357272
0.0106502033993
0.0106006386951
0.010600803044
0.010600468474
0.0106008069712
0.0106024324912
0.0106057736118
0.0106112941107
0.010619631136
0.0106315319338
0.0106478570589
0.0105977574929
0.0105978681871
0.0105976680617
0.0105982305692
0.0106001346991
0.0106037157086
0.0106093580263
0.0106176770561
0.0106294358335
0.0106455383705
0.0105939024517
0.0105940737864
0.0105940254661
0.0105948835348
0.0105972902778
0.010601376398
0.0106072893966
0.0106156827572
0.0106273669247
0.0106433016514
0.0105927289242
0.0105929264883
0.0105930036634
0.0105939121213
0.0105962883449
0.0106002750321
0.0106060068828
0.0106141973519
0.0106256574462
0.0106413512202
0.0105938667751
0.0105940102904
0.0105940339117
0.0105946729247
0.0105964313507
0.0105996993068
0.0106049295744
0.0106127525708
0.0106239262247
0.0106393783336
0.0105922146331
0.0105922339892
0.0105921636492
0.0105927556727
0.0105944962804
0.0105976609333
0.0106027563213
0.0106104220856
0.0106214386884
0.0106367867474
0.0105896163131
0.0105895831695
0.0105894492379
0.0105900050517
0.0105917344196
0.010594858498
0.0105998718872
0.0106073945181
0.0106182937517
0.0106337067161
0.010589992853
0.010590007431
0.0105899986769
0.0105904768526
0.0105919103605
0.0105947002562
0.0105993112547
0.010606402833
0.0106169058232
0.0106320007615
0.0105928068271
0.0105927314837
0.0105927573872
0.0105931703108
0.0105943426632
0.0105967212979
0.0106008359506
0.0106074160331
0.0106173485193
0.0106317315005
0.0105926490622
0.010592386368
0.0105923532905
0.010592665152
0.0105936855186
0.0105961495545
0.0106002749948
0.0106068100887
0.0106166496717
0.0106308872345
0.0105904008792
0.0105902509704
0.0105902187736
0.0105905010917
0.0105915000242
0.0105940473209
0.0105982936603
0.0106050527171
0.0106151857499
0.0106296343218
0.0105898980289
0.010589911028
0.0105900317102
0.0105904687255
0.0105916029159
0.0105939354985
0.0105980794213
0.0106047731984
0.0106148637856
0.0106292546061
0.0105913577991
0.0105914614657
0.0105917457203
0.0105923290388
0.0105935628201
0.0105958850627
0.0105998442084
0.0106061807238
0.0106157945811
0.0106298223769
0.0105923424657
0.0105924562652
0.0105928170994
0.0105934644587
0.010594714005
0.010596989426
0.0106008519999
0.010607040894
0.0106164597999
0.0106302582403
0.0105937795588
0.0105939568032
0.0105944192434
0.0105950871379
0.0105962137567
0.0105981067784
0.0106016744507
0.0106076124384
0.0106167711352
0.0106302632445
0.0105949063002
0.0105952265451
0.0105957828725
0.0105964707786
0.0105975008454
0.0105990811086
0.0106023046262
0.0106079565161
0.0106168312853
0.0106299987847
0.0105943482377
0.0105947279438
0.0105952668115
0.0105959930228
0.0105971653919
0.0105990734943
0.0106023903691
0.0106080544685
0.0106168834389
0.0106300129775
0.0105927248173
0.0105927876846
0.0105932099095
0.0105939991837
0.0105954595238
0.0105980450259
0.0106019359482
0.0106079519784
0.0106170940868
0.0106306207989
0.0105910256589
0.0105910132495
0.010591491473
0.0105923899365
0.0105940978169
0.0105968778394
0.010601284401
0.0106078113574
0.0106174853656
0.0106316222035
0.010590173524
0.0105904683728
0.0105911530173
0.0105922160973
0.0105938776739
0.0105963467066
0.0106007584728
0.0106077229054
0.010617884183
0.010632518683
0.0105903353298
0.0105906751282
0.0105914958481
0.0105927760592
0.0105943583899
0.0105968063043
0.0106006354926
0.0106076681455
0.0106179778215
0.0106326315336
0.0105908809325
0.0105911659226
0.0105918964099
0.0105930034699
0.010594470473
0.0105967929047
0.0106005457326
0.0106071961917
0.0106173317311
0.0106317786102
0.0105909374113
0.010591224684
0.0105917935184
0.0105925672524
0.0105938998365
0.0105962744767
0.0106002676894
0.0106066738766
0.0106165601216
0.0106309099497
0.0105905553592
0.0105907685504
0.01059135244
0.010592206884
0.0105936449046
0.0105961144949
0.0106001790428
0.0106065980137
0.0106163136442
0.0106305102744
0.0105901796144
0.0105903052243
0.0105908357753
0.0105916686508
0.0105930923313
0.0105955447302
0.0105995886437
0.0106059753567
0.010615643773
0.0106298334619
0.0105901009162
0.0105901922342
0.0105907695717
0.0105915709667
0.0105928289571
0.0105951219664
0.0105990419588
0.0106053071356
0.0106147732492
0.0106288662641
0.0105901202572
0.0105903046801
0.0105909400657
0.0105917244787
0.0105928832523
0.010594996552
0.0105987940049
0.0106049536156
0.0106142846064
0.0106282327768
0.0105898383084
0.0105899825668
0.0105906229024
0.0105915118821
0.010592894721
0.0105951806935
0.0105991872835
0.0106054742801
0.010614919483
0.010628741656
0.0105899397451
0.0105901603466
0.0105909650431
0.0105921206082
0.0105937664411
0.0105963668536
0.0106005230691
0.0106069619623
0.0106164073029
0.010630209387
0.0105903571372
0.0105906529604
0.0105915538827
0.0105928307757
0.0105945385666
0.0105971674539
0.010601242114
0.0106076849735
0.0106171504167
0.0106310093894
0.0105901306298
0.0105902869604
0.0105910458341
0.0105921202311
0.0105937416416
0.0105963413418
0.0106004534245
0.0106067967357
0.0106162691197
0.0106299652747
0.0105894811619
0.0105894695582
0.0105900565566
0.0105909903064
0.0105925254646
0.0105950686325
0.0105991321075
0.010605423214
0.0106148225126
0.0106284395072
0.0105892852177
0.0105893930024
0.0105900747825
0.0105910127254
0.0105924794238
0.0105949921907
0.0105990619249
0.0106054274478
0.0106148363594
0.0106284749057
0.0105897276533
0.0105900120849
0.0105907764989
0.0105917523906
0.0105932147652
0.0105956844396
0.0105997980732
0.0106063138647
0.010615798026
0.0106294678471
0.0105903186963
0.0105906268456
0.0105913626071
0.0105923921607
0.0105939643874
0.0105964556301
0.0106005768003
0.0106070466019
0.0106165854255
0.0106303887312
0.010590214246
0.0105903970075
0.0105911465049
0.0105922201823
0.0105939158764
0.010596550859
0.0106006878246
0.0106070824636
0.010616666708
0.0106306327606
0.0105897543548
0.0105898319945
0.010590623209
0.0105917395641
0.0105934910488
0.0105962552507
0.0106004595877
0.0106069158991
0.0106165410147
0.010630542395
0.0105896901923
0.0105898713579
0.0105906758219
0.0105917801535
0.0105934833393
0.0105963261883
0.0106006457536
0.0106071820833
0.0106168445083
0.0106308258027
0.010590093847
0.0105903350934
0.0105911006748
0.0105921834784
0.0105938803306
0.0105966380183
0.0106009858171
0.0106075076553
0.0106171539944
0.0106310908145
0.010590308481
0.0105905566291
0.0105913014159
0.0105923523852
0.0105939939958
0.010596644461
0.0106008396388
0.0106072893852
0.0106169004534
0.0106308520417
0.0105900813641
0.0105902276774
0.0105909151439
0.0105919267014
0.0105935378687
0.0105961647946
0.0106003577185
0.0106068632031
0.010616490068
0.0106304469136
0.0105898250646
0.0105899231839
0.0105906105351
0.0105916588017
0.0105932985801
0.0105959522886
0.0106001835763
0.0106067949975
0.0106165090944
0.0106305389065
0.0105898761715
0.0105900314791
0.0105907556353
0.0105918114057
0.0105934341003
0.0105960643998
0.0106002961394
0.0106068871399
0.0106167003352
0.0106308085604
0.0105901220548
0.0105903510243
0.0105910921574
0.0105921122336
0.0105937117012
0.0105963208196
0.0106005300585
0.0106070255123
0.0106167853638
0.0106308414565
0.010590225189
0.0105904446358
0.0105911414761
0.0105921707599
0.0105938200277
0.0105964483176
0.0106006151903
0.0106070496747
0.0106166729454
0.0106306545682
0.0105900308137
0.0105901804035
0.0105908398177
0.0105918527563