/*--------------------------------*- C++ -*----------------------------------*\
| =========                 |                                                 |
| \\      /  F ield         | OpenFOAM: The Open Source CFD Toolbox           |
|  \\    /   O peration     | Version:  v2012                                 |
|   \\  /    A nd           | Website:  www.openfoam.com                      |
|    \\/     M anipulation  |                                                 |
\*---------------------------------------------------------------------------*/
FoamFile
{
    version     2.0;
    format      ascii;
    class       volScalarField;
    location    "50";
    object      omega;
}
// * * * * * * * * * * * * * * * * * * * * * * * * * * * * * * * * * * * * * //

dimensions      [0 0 -1 0 0 0 0];


internalField   nonuniform List<scalar> 
15000
(
4.46385433746
4.46385875133
4.46385067248
4.46385066551
4.46387909373
4.46388863442
4.46347447052
4.4621716482
4.46160371978
4.45806241926
4.44743059546
4.44743390645
4.44743666659
4.44744820106
4.44741604595
4.44737063954
4.44785802098
4.44951218893
4.44425509169
4.45383953373
4.43112245819
4.43112398535
4.43111082835
4.4310918087
4.43111544806
4.431209687
4.43104977748
4.42872968606
4.44411736241
4.45541691334
4.41493583575
4.41494370011
4.41496306614
4.41501703711
4.41506694867
4.41508733407
4.41527097499
4.41934984081
4.46193062988
4.46526078548
4.39888455925
4.398880795
4.39884356633
4.39877192521
4.3986988679
4.39870376746
4.3990806459
4.40042942656
4.50764353518
4.48317845283
4.38286621082
4.38288314479
4.38293293016
4.3830414321
4.38321946026
4.38343918419
4.38353751092
4.39523563427
4.5653093839
4.51069518461
4.36712592484
4.36710939508
4.36703888383
4.3669174893
4.36671898273
4.36649938818
4.36820291471
4.39497342896
4.61893734012
4.54626578732
4.35125883991
4.3512932046
4.35138454823
4.35153322477
4.35183188534
4.35246239996
4.35475416911
4.40148204118
4.67440549739
4.59013944609
4.33579177296
4.33576377057
4.3356747773
4.33556209496
4.33531815951
4.33504535606
4.3415145085
4.41253229685
4.72467495531
4.64086824269
4.32012793256
4.32016815289
4.32027763929
4.32040724904
4.32073386448
4.32211414228
4.32593518858
4.4339559559
4.77976390036
4.69378463449
4.30489067967
4.30485556702
4.30477923712
4.30472122501
4.30458975008
4.30436034435
4.31829687723
4.46482297619
4.83019398904
4.75277479063
4.28945823322
4.28949513737
4.28960386625
4.28968338659
4.29001632447
4.29304764677
4.31378710623
4.5100493748
4.88693514362
4.81366939475
4.27436682103
4.27432293731
4.27427359679
4.27426701694
4.27439567555
4.27559015594
4.31388005701
4.58576549684
4.94142442513
4.87629325966
4.25927242966
4.25933055039
4.2594412964
4.25948480476
4.25993248654
4.26688984229
4.31923708888
4.66459601405
5.00386996498
4.96980346177
4.24434155395
4.24425662548
4.24420626007
4.24428274927
4.24503726155
4.25048067787
4.32953697177
4.73982807617
5.06932622988
5.05058524387
4.22955068905
4.22971271618
4.22985747637
4.22992997959
4.23083436431
4.23858181544
4.34334738603
4.81454645039
5.13929639062
5.15666596347
4.21491501541
4.21467677831
4.21456911531
4.21478434715
4.21616889274
4.23104257828
4.3649221524
4.89240417387
5.21662458183
5.25940938795
4.20011343102
4.20046072644
4.20072626318
4.2009497287
4.20349848729
4.22572378117
4.39070142212
4.97156093608
5.30016347953
5.38258899864
4.18625255018
4.18588463842
4.18570051261
4.18620484189
4.18973255164
4.22244412352
4.42949142852
5.04816602537
5.38243855481
5.49917689026
4.17159679231
4.17205692547
4.17251256478
4.17298200238
4.17767013116
4.22233914602
4.48193646569
5.14099444959
5.48302571539
5.66728186558
4.15851528491
4.1581859744
4.15801506874
4.15941730127
4.17015456272
4.2262433092
4.54375016159
5.22246696755
5.59327425945
5.84491841481
4.1449273787
4.14551254223
4.14614592276
4.14710550802
4.15153003254
4.23429000846
4.63166014692
5.33464874204
5.7206192422
6.09736467635
4.13337101518
4.13305320698
4.13292517029
4.13441492749
4.14228960513
4.24940494827
4.72797504943
5.47083060197
5.9289009425
6.48326859293
4.12006145308
4.12066475676
4.12138161935
4.1229819877
4.13535966639
4.27072791759
4.86690166858
5.67412760474
6.24163227832
6.99374752752
4.10178258803
4.10084579914
4.10060756943
4.10418898424
4.12946385312
4.31195304605
5.09335774897
5.92372789081
6.49750429592
7.01879164706
4.07073576091
4.07048161125
4.07075563171
4.0764064812
4.12129816285
4.37463534215
5.28523662794
5.95697437564
6.46210562346
6.9344698237
4.02112394049
4.0185301401
4.01698654624
4.02473320388
4.09132876668
4.3927935209
5.27554560608
5.89847072538
6.3442742539
6.75465943704
3.94584966891
3.94259279801
3.93957363457
3.9502309086
4.03159205216
4.37856756109
5.19635863184
5.75243864021
6.1369608895
6.4745898858
3.83868774815
3.83282083058
3.82787012596
3.83865373062
3.9290180505
4.30157794005
5.0418931298
5.5218108542
5.83897304938
6.10945155951
3.70169148754
3.69350732178
3.68490699093
3.697209363
3.79829295948
4.18058554448
4.81217426324
5.21443425556
5.46733294562
5.67181460447
3.5325338482
3.52241929147
3.51042775238
3.52045936061
3.6258896101
4.00748803195
4.52265471731
4.84450171873
5.03112920601
5.1862282376
3.34093802061
3.3260980511
3.31067649502
3.32162731848
3.43041745211
3.7954845477
4.18628148093
4.43463159573
4.56833530205
4.6790551885
3.13003766916
3.11419500385
3.09536449638
3.10141815607
3.20545489839
3.53101055085
3.82339407426
4.00476458953
4.08973771167
4.17597095344
2.91320601061
2.89414112496
2.87081748611
2.87749468962
2.97712454807
3.24246595544
3.45344534814
3.57787973052
3.62859877553
3.69511985178
2.69908444075
2.67787358612
2.65339961178
2.65414491321
2.74173044299
2.95151871175
3.09920414535
3.18191879311
3.20554154164
3.25958961269
2.49450802
2.47249413235
2.44529719206
2.4469262278
2.52951725715
2.67257012886
2.76835525658
2.81352363835
2.81905445348
2.87233751462
2.30929410133
2.29018493086
2.26486299815
2.26627212781
2.33597154077
2.42508295691
2.48258548133
2.5040300716
2.50176147548
2.55827604756
2.15855162426
2.13959074544
2.11235732988
2.10818558149
2.16282532695
2.21425125883
2.24174237094
2.24862228804
2.24450468755
2.30018219348
2.0393999141
2.02062944277
1.99340076503
1.99336149205
2.03531956156
2.05142128064
2.06298848128
2.05632131686
2.05471286995
2.12451076257
1.95532328647
1.93690070345
1.9070809669
1.89632524663
1.91868025097
1.92837847116
1.92305758971
1.90825858116
1.92096461467
1.97317894424
1.89330999128
1.87807321977
1.85240415102
1.85264871475
1.86292044615
1.84491697224
1.82799123557
1.83476603139
1.83031270128
1.90792334477
1.85746710783
1.84454586558
1.81806871413
1.82951272525
1.82196774208
1.79922586855
1.79193719802
1.80071640054
1.8183877655
1.87552690123
1.84207991651
1.82538538111
1.80454509506
1.82240820897
1.80416764981
1.78009823922
1.77697285002
1.77858038056
1.81022500589
1.85943972153
1.83061374
1.82470738334
1.80987187496
1.81809733781
1.79652662071
1.77847487059
1.75965689477
1.76903009467
1.80015655754
1.84253531647
1.82648730374
1.82178315367
1.8024739501
1.81404236223
1.79729233192
1.77648023538
1.76176034282
1.76501115915
1.78971336268
1.83069470304
1.82775522308
1.8164708533
1.80297327683
1.80001946619
1.79487772542
1.76151464305
1.75978096835
1.76059561129
1.76823587956
1.81802264215
1.83879567183
1.81857800784
1.79777503219
1.79837498113
1.79305784256
1.76793241039
1.75574090282
1.75509417161
1.77659209268
1.82618643622
1.84702047526
1.82910130089
1.80059150406
1.78965277564
1.79067961243
1.762967751
1.74548136708
1.7433480365
1.76631300354
1.82501813788
1.86160581986
1.84720516082
1.82342774188
1.7997829108
1.78847605761
1.7648806898
1.74818677736
1.7535989925
1.7689595001
1.81966287824
1.88454691092
1.87132598924
1.85014817898
1.82780717495
1.80680399967
1.7827135967
1.76472354727
1.75842643267
1.76978370758
1.80398530259
1.9268934687
1.91409285022
1.89253277596
1.86663914578
1.84424403828
1.82173718698
1.80072617474
1.78435491394
1.78084667667
1.81627643984
1.97053790416
1.95749220057
1.93730927616
1.91490092284
1.8896289187
1.86494292443
1.84456887835
1.82943188958
1.82187516007
1.82558396534
2.03155159595
2.01772850521
1.995362893
1.96880536847
1.94506268407
1.9231002317
1.90366370213
1.88283403728
1.86466518088
1.85879748193
2.08835286224
2.07350289737
2.05126635368
2.0279499121
2.00064584661
1.97431277846
1.95206813037
1.93567149133
1.92327304253
1.90661100265
2.15819133871
2.14232508617
2.11667182073
2.08691969873
2.0619234148
2.0396546227
2.02036823702
1.99949675976
1.97741541535
1.96162802184
2.21366772479
2.1968216327
2.17098844089
2.14646668858
2.11677591507
2.08962364176
2.06595726063
2.04421662078
2.03226648475
2.01207987486
2.27894959616
2.26268138975
2.23483300454
2.20010705396
2.17454055619
2.15272408734
2.1301252181
2.1096029445
2.08184827698
2.06611602411
2.3210329033
2.30458042871
2.27877502655
2.25326859255
2.21904457907
2.19205808833
2.16785440278
2.14585313275
2.13207730246
2.10608521937
2.37003722033
2.35644577696
2.33105478247
2.29027889554
2.274638656
2.25116741392
2.22639754274
2.20348256149
2.16835241181
2.1547312639
2.3732792535
2.36022937894
2.33882828863
2.3280756456
2.2959141561
2.26902035811
2.23217874166
2.20635208022
2.20000490956
2.16085312361
2.39274377018
2.38099331887
2.36301073746
2.32798005373
2.30703817619
2.28208207857
2.2615514424
2.23695348462
2.19807378145
2.17657358688
2.37938743387
2.36878338829
2.35008108787
2.32542302747
2.29876432997
2.27318365785
2.24968094192
2.22363697785
2.19566062685
2.17003230698
2.36274538436
2.35340237402
2.33652302181
2.31454435999
2.28957027729
2.26426101694
2.23864154778
2.21326949883
2.18745716584
2.16299470955
2.33646265924
2.32833406985
2.31355578993
2.29373559105
2.2704991036
2.24621792954
2.22105322255
2.19633851878
2.17182133189
2.14965630466
2.29932527336
2.29240583614
2.27971744043
2.26193721495
2.24049942415
2.21762851102
2.19368089618
2.17023083226
2.14765201204
2.12884963498
2.25217683524
2.24627059504
2.23548012633
2.2195614028
2.19993329523
2.17872398869
2.15660406644
2.13540725511
2.11624598421
2.10211956822
2.19635015394
2.19132265337
2.18216429826
2.16793186904
2.150059864
2.13065520902
2.11063332905
2.09185459118
2.07547686575
2.07128289039
2.13372587791
2.12936554025
2.12156818174
2.10880138469
2.0925863128
2.07505383171
2.05753691972
2.04256196997
2.03382576689
2.03944386206
2.06581693829
2.06200210901
2.0552922154
2.04379840949
2.02918065224
2.01376947902
1.99951603293
1.98922846802
1.99006445339
2.00671678632
1.99409972648
1.99063415269
1.98470247994
1.97416515985
1.96088027724
1.94741113987
1.93606992597
1.93363932533
1.94473382354
1.9707623706
1.91971570825
1.91641205324
1.91075390699
1.90038958262
1.88734201769
1.87573942929
1.86945413486
1.87532505598
1.89602990157
1.92975379323
1.84378772184
1.84036908158
1.83433886817
1.82286000951
1.80713681223
1.79522352127
1.79473852206
1.81061276015
1.84141016097
1.88293594321
1.76745156511
1.76376523107
1.75693069527
1.74365786375
1.72687760083
1.71625107542
1.72015261145
1.74282444086
1.78219902143
1.83039418363
1.69208260843
1.6881301194
1.68062403378
1.66615487392
1.64951252258
1.64048195589
1.64736619499
1.67427701498
1.71891930761
1.77208397248
1.61864695397
1.61453867457
1.60664865271
1.59172119273
1.57561902609
1.56792418429
1.57660265475
1.60569193536
1.65266952509
1.70888760958
1.54773639298
1.54352647728
1.53544633368
1.52045285673
1.50496510049
1.49823950511
1.50782716372
1.53766326093
1.58517985005
1.64249263323
1.47959376207
1.4753252821
1.46712119716
1.45215751709
1.43723045426
1.43115187129
1.4410247836
1.47061988397
1.51740644556
1.57417228019
1.41437318275
1.41003105063
1.4016888992
1.38669902697
1.37221973062
1.36654278007
1.37628280466
1.40497283819
1.450146649
1.50513288255
1.35206648334
1.3476499137
1.33912274141
1.32398165286
1.30985451634
1.30442087112
1.31378222664
1.34118866697
1.38426399099
1.43684109228
1.29271055453
1.28819226273
1.27942645802
1.26401636261
1.25015445398
1.24487275477
1.25372187012
1.27962150155
1.32026074936
1.36989464544
1.23611813754
1.23151153437
1.22249479331
1.20675172588
1.19314327678
1.18799658675
1.19629674024
1.22061426796
1.25867550846
1.30511364475
1.18232698435
1.17761524939
1.16833131685
1.1522407066
1.1388915078
1.1339060209
1.14168693523
1.16445882952
1.1999841024
1.24328625191
1.13043294353
1.12589354651
1.11650421877
1.10030041953
1.08737784922
1.0826556874
1.09000130101
1.1113370978
1.1444643027
1.18481087246
1.08163126711
1.07682175448
1.0669925874
1.05100903352
1.038663664
1.03429970539
1.04129714048
1.06131835206
1.09221291733
1.12980831174
1.0335356296
1.02966896966
1.01965829947
1.00434393973
0.992757786919
0.988835210898
0.995556968051
1.0143751308
1.04319595997
1.07823079527
0.98991311911
0.98582069566
0.975357138186
0.960645726755
0.94979570044
0.946307990115
0.952777884109
0.970458884945
0.997333736937
1.02996818552
0.947389969981
0.944283767665
0.933719243233
0.919735956739
0.909657996185
0.906612714663
0.912853655119
0.929469217666
0.954520252115
0.984899955387
0.909191762605
0.905942465353
0.895022509405
0.881634400757
0.872270065743
0.869645722554
0.875668990381
0.891278628175
0.91461560964
0.942869944964
0.872107100822
0.869726462204
0.858773073715
0.846090047062
0.837465255687
0.835257837474
0.841078366677
0.855740939318
0.877466374071
0.903717499928
0.83871255841
0.836250176793
0.825099985191
0.813044282769
0.805117983225
0.803305517835
0.808930433479
0.822695426233
0.84290439883
0.867265746928
0.806221244186
0.8045507119
0.793544240873
0.782249765369
0.775054257172
0.773628713838
0.77906519323
0.79198028551
0.810764181356
0.833349598873
0.776706193625
0.775016340795
0.764160435426
0.753632009013
0.747147523666
0.74608440282
0.751329300795
0.763429031268
0.780868152152
0.801783999317
0.747805630569
0.746733209094
0.736594135347
0.72700125391
0.721250695363
0.720526635154
0.72557114835
0.736883333686
0.753049265716
0.772396650747
0.721485894969
0.720277602802
0.71099429152
0.702326263504
0.697260552444
0.696829597194
0.701654242257
0.712195001155
0.727147981481
0.745014900818
0.696122085321
0.695524202147
0.687212110039
0.679477743227
0.675056770941
0.674869896208
0.679451168892
0.689226889902
0.703007516989
0.71944657825
0.67339836235
0.672780237926
0.665306472841
0.65840235254
0.65454527742
0.654548651167
0.658863959506
0.667871340614
0.680521321836
0.695598035649
0.651733510222
0.651619781521
0.645025411819
0.638900705901
0.635464075548
0.635608161674
0.639732196521
0.648004401676
0.659569020575
0.673340215076
0.632407308062
0.632186031379
0.626395949396
0.620975758018
0.617964294526
0.618197514316
0.622012393313
0.629546639661
0.640065881725
0.652593827387
0.61417373239
0.614250728523
0.6092401199
0.604487181764
0.601863521994
0.602131356412
0.605601752609
0.612406850127
0.621912564618
0.633237323858
0.598158408098
0.598043197452
0.593571730235
0.589411001613
0.587157781827
0.587412674249
0.590445873923
0.596516486327
0.605039972687
0.615210736495
0.583293047002
0.583328310163
0.579283999408
0.57560738143
0.573608265435
0.573794858711
0.576431474477
0.581783029866
0.589353846321
0.598408778089
0.57044115384
0.570243561114
0.566455131561
0.563042676107
0.561205457003
0.561284718633
0.563519155427
0.568147852865
0.574788078215
0.58275970682
0.558670362876
0.558549085834
0.554991339554
0.55175105662
0.549926968613
0.549843457484
0.551666728977
0.555570888197
0.56130874371
0.568236942561
0.548608226652
0.54827656303
0.544868315498
0.541724037508
0.539830299333
0.53948061517
0.540820298672
0.543990082185
0.54884085924
0.554745776701
0.539444272638
0.53916676635
0.535921115915
0.532857237932
0.530865652239
0.530207757039
0.531013877186
0.533396026249
0.537336017251
0.542236283907
0.531645243331
0.531198906368
0.52806918954
0.525059284138
0.522962365337
0.52201504575
0.52230993116
0.523909135809
0.526862604088
0.530719278009
0.524543809608
0.524144560224
0.521149180908
0.518196545575
0.515998814732
0.514763836835
0.514568130386
0.515468996175
0.517405645755
0.520183923292
0.518508114794
0.517978106775
0.515082000811
0.512170954213
0.509873076294
0.508365450483
0.507705641951
0.507929555455
0.50898560561
0.510651478238
0.51301124253
0.512523194941
0.509741208668
0.506877466093
0.504492958424
0.502738360397
0.501659201022
0.501285959511
0.501578302067
0.502287492789
0.50835603555
0.50776729359
0.505071028399
0.502243927444
0.499778627954
0.497800969984
0.496340659082
0.495415384363
0.494975780507
0.494782027413
0.504129783479
0.503577891779
0.50097823261
0.498192177892
0.495658594808
0.493481486862
0.49167849175
0.490254161838
0.489149038433
0.488129835074
0.500572766872
0.499943501846
0.497417574429
0.494664677302
0.492068858557
0.489714781204
0.487606972378
0.485737556513
0.484038892995
0.48228263587
0.497342583267
0.496746196044
0.494302955651
0.491587267956
0.488940639718
0.486430853606
0.484053597332
0.481791025946
0.47956809406
0.477162041172
0.494609009939
0.493954012399
0.491575728223
0.488891951238
0.486200461263
0.483554702863
0.480940936392
0.478332654929
0.475649935457
0.47267615592
0.492084993945
0.491459477691
0.489152982565
0.486504040532
0.483777103127
0.48101299783
0.478192259001
0.475281927729
0.472198090014
0.46873142171
0.489918985643
0.489248189836
0.486997747943
0.484378117845
0.481619197418
0.478751598712
0.475749514313
0.472574516254
0.469140800166
0.465246745349
0.487907220908
0.48726151989
0.485070679951
0.482480478754
0.479694985279
0.476735554715
0.473573024079
0.47016516529
0.466424726648
0.462158538575
0.486182246665
0.485500897695
0.483355915377
0.480789622312
0.477978775706
0.474937492192
0.471632410655
0.468018045259
0.46400723926
0.459415246357
0.484569154354
0.483908706313
0.481812577217
0.479270339005
0.476438630211
0.473324598614
0.469892991146
0.466096205578
0.461847174368
0.456969844642
0.483164173101
0.482475975916
0.480418028697
0.477896065289
0.475045059212
0.471866989391
0.46832376588
0.464365883182
0.459907435583
0.45478067192
0.481846128976
0.481174880905
0.479156388832
0.476653479436
0.473785681556
0.470549787937
0.466906796132
0.46280613271
0.458162779041
0.452817222606
0.480724531825
0.480030157142
0.478040140407
0.475550392644
0.472663807959
0.469373804894
0.465639625907
0.46140973508
0.456600804098
0.451060957517
0.479714191225
0.47903168002
0.477069383546
0.474589009648
0.471682758642
0.468340394668
0.464521023862
0.460172784453
0.455213611661
0.449498997359
0.478874456977
0.478172506206
0.476230934251
0.473755933372
0.47082943853
0.467438448041
0.463540921243
0.459084565049
0.453989120502
0.448116752052
0.478090620437
0.477399097527
0.475481211121
0.473015342809
0.470074387538
0.466642103181
0.462676347933
0.45812464827
0.452907962443
0.446894818503
0.477393673949
0.476689734867
0.474793684281
0.47234059058
0.469391202837
0.465927037091
0.461904628427
0.457270967993
0.451948574699
0.44581168235
0.476731936183
0.476038923674
0.474167235761
0.471728230235
0.468774377064
0.465283996382
0.461213198644
0.456508659108
0.451093896888
0.444848533942
0.476181265657
0.475478713734
0.473625449476
0.471197423518
0.468237145376
0.464721227433
0.460604928025
0.455834850894
0.450336178106
0.443993479233
0.475736792631
0.475042185219
0.473206211063
0.470784292681
0.46781195877
0.464263822144
0.460096819112
0.455259238578
0.449678270676
0.443243397013
0.475475698475
0.474775809329
0.472954457279
0.470533372711
0.4675372088
0.463940565414
0.459707765545
0.454792243338
0.449124266874
0.442597132527
0.475304680885
0.474618413175
0.472809626675
0.470385455288
0.467356595187
0.463696828266
0.459391963482
0.45439898157
0.448648004875
0.442034269749
0.475003126354
0.474311452525
0.472501678931
0.470078402424
0.467040320359
0.463360373098
0.459028115914
0.453994292602
0.448188766592
0.441510218774
0.47446723077
0.473771033324
0.471970388455
0.469560891933
0.46655001077
0.462906438912
0.458588430621
0.453546350693
0.447712656658
0.440992070237
0.474029899754
0.473324473581
0.471539024791
0.469138584523
0.466132391155
0.462489269194
0.458163723906
0.45310354945
0.447241528308
0.440485666644
0.473688277222
0.472985294047
0.471206207664
0.468807078067
0.465795214546
0.462138869099
0.457792806817
0.452705006647
0.446809202617
0.440016525631
0.473442652787
0.472733418621
0.470956068559
0.468554213907
0.46553172369
0.461857075391
0.457485336132
0.452365221957
0.446432085762
0.439600063654
0.47324312512
0.47253345772
0.470756598836
0.468350213966
0.4653162349
0.461622621975
0.457225115156
0.452073178936
0.446103378818
0.439232671334
0.473054190648
0.472339766636
0.470565054238
0.468157046488
0.465114728355
0.461406266485
0.456987545165
0.45180849959
0.445806895208
0.43890208141
0.472869077846
0.472158384179
0.470389649918
0.467981922843
0.464932787296
0.461210654175
0.456772624671
0.451569436056
0.445539687519
0.438604801883
0.472767088316
0.472054108313
0.470287682183
0.467874638489
0.464809612327
0.461065103137
0.456601336102
0.45137016395
0.445310844029
0.438346057369
0.472726596539
0.47201439609
0.470249263911
0.467826668731
0.464736348148
0.460958850606
0.456465029864
0.451205181062
0.445117124383
0.43812387014
0.472598327611
0.471881657404
0.470118368603
0.467698308249
0.464607605209
0.46082619158
0.45632505509
0.451051853449
0.444945214921
0.437930091922
0.472376095973
0.471665733369
0.469913558099
0.46751090788
0.464447501077
0.460690968264
0.456198580131
0.450921838299
0.444802120662
0.437767945829
0.472296563481
0.471589474576
0.469847795415
0.467451244774
0.464387135011
0.460627933655
0.456128065356
0.450838609385
0.444700854679
0.437643316947
0.472273977413
0.471571006839
0.469836269248
0.467441601778
0.464372939149
0.460604311458
0.456091096852
0.450785800576
0.444627138331
0.437540023481
0.47215772698
0.471448876198
0.469710039178
0.467316822777
0.464252857127
0.460484550574
0.455969171302
0.450658663274
0.444490911019
0.437391636167
0.471973859416
0.471263840625
0.469523426229
0.467129388109
0.464066769994
0.460299679051
0.455784545559
0.450472071243
0.444303375437
0.437209445221
0.471942754939
0.471233394149
0.469496207221
0.467102145693
0.464032151737
0.460241847764
0.455705272342
0.450372749861
0.444185446379
0.437075663577
0.471937393403
0.471229339835
0.46949481455
0.467101327623
0.464028318804
0.460228193313
0.455677946847
0.450324316526
0.444110394671
0.436976637265
0.471805632744
0.471094217161
0.469357295124
0.466963078094
0.463893679619
0.46011101639
0.455567544902
0.450213992801
0.443995552878
0.436856349608
0.471624524813
0.470911417806
0.469171427029
0.46677407533
0.463702841046
0.459921626913
0.455385259963
0.450044169437
0.443841464027
0.436712660381
0.471509368552
0.470794972396
0.469053894672
0.466654654156
0.463580736078
0.45979692324
0.455258763001
0.449917278254
0.44371592974
0.436590233817
0.471432342471
0.470717153972
0.468974941544
0.466573842707
0.463497386205
0.459710483952
0.455169275933
0.449825528474
0.443623535098
0.436499831698
0.471387653988
0.470665320258
0.468920387485
0.466517282584
0.463438344189
0.459648605304
0.455104444048
0.449758087234
0.443554610606
0.436431524141
0.471363930974
0.470632831149
0.468885706467
0.466480191853
0.463397534659
0.459602632756
0.455053134434
0.449701172041
0.443491386582
0.436360961196
0.471354769734
0.470632177366
0.468888460522
0.466480760755
0.463389148978
0.459575529562
0.455012046762
0.449647800123
0.443424756428
0.436278417871
0.471355232026
0.470641115653
0.468898991805
0.466489574963
0.463389396864
0.45956954098
0.454986000471
0.449603162061
0.443362635731
0.436199031268
0.471345230778
0.470623961118
0.468881306457
0.466477453221
0.46338395812
0.45957573999
0.454982281768
0.449577104974
0.443316436765
0.436135370641
0.47132388421
0.470599086011
0.468856174301
0.466453093918
0.46336481634
0.459554503552
0.454977471757
0.449562318438
0.443285670227
0.436089004701
0.471290349153
0.470564392093
0.468820372961
0.466412205846
0.463321340678
0.459513975112
0.454944431276
0.44953894604
0.443256719059
0.436049821694
0.471250488991
0.470521650546
0.468776923271
0.466369350422
0.463278176474
0.459465802565
0.454886667428
0.449488044825
0.443211130301
0.436003990733
0.471208130275
0.470480879996
0.468735346962
0.466325495458
0.463230694111
0.459414224103
0.454831069397
0.449431829863
0.44316106148
0.435958512782
0.471184388649
0.470465646746
0.468723829828
0.466314752035
0.463219354802
0.459401747785
0.454817638993
0.449418123203
0.443147497304
0.435942947501
0.471183556793
0.470468221227
0.468725310189
0.466315565702
0.463219711111
0.459401877109
0.454817890005
0.449419547774
0.443153769084
0.435949012008
0.471186199188
0.470466846934
0.46872158755
0.466310950756
0.46321438017
0.459395703919
0.45481078702
0.449411562388
0.443145761459
0.435940826414
0.471171693369
0.470451159075
0.468706059433
0.466293911321
0.46319461034
0.459372279431
0.454782920167
0.449377727601
0.443101423692
0.435892493193
0.471138259078
0.470412500116
0.468664042036
0.466248881937
0.463146130497
0.459319801797
0.454726189614
0.449316921789
0.443037483095
0.435827754809
0.471106814156
0.470380077387
0.468632136052
0.466216408876
0.463112618247
0.45928490488
0.454689667304
0.449279032458
0.442999327414
0.435791652656
0.471096968151
0.470375354148
0.468630364356
0.466215821541
0.463112131863
0.459283707485
0.454687384428
0.449275658463
0.442995458652
0.43579008917
0.471097601067
0.470380883169
0.468638001917
0.466224416998
0.46312083455
0.459292001025
0.454695212853
0.449282932755
0.443001977732
0.435796005261
0.47108656013
0.470367114268
0.468622276407
0.466207751455
0.463103903057
0.459274968918
0.45467839537
0.449265947738
0.44298310291
0.435770108169
0.47106419548
0.470340079962
0.46859234072
0.466176071614
0.463070948103
0.459240896974
0.454642764349
0.449227912272
0.442941497578
0.43572271449
0.471040212298
0.470314559846
0.468565664626
0.466147306056
0.463039469116
0.459206470855
0.454604810186
0.449186391991
0.442897280267
0.435678050755
0.471027597074
0.470305622512
0.468556168577
0.46613541222
0.463022256481
0.459185048765
0.454579646082
0.449157807791
0.442865728588
0.435644169039
0.471026703414
0.47030781812
0.468556557138
0.466135385936
0.463019928269
0.459176390182
0.45456552622
0.449139309789
0.442843650671
0.435619172164
0.471025767701
0.470304692479
0.468554171602
0.466134520597
0.46302105055
0.45917387476
0.454557256602
0.44912692358
0.442828120737
0.43560107263
0.471010598935
0.470288063127
0.468539138813
0.466118132674
0.4630044885
0.4591611941
0.454545252141
0.449114978094
0.442815251914
0.435586985826
0.470991757096
0.470266951284
0.468517266141
0.466096182065
0.462983441552
0.459143039194
0.454531839246
0.449102692609
0.442802919951
0.435574331231
0.470987300251
0.470264643813
0.468515928587
0.466095041675
0.462982082598
0.45914100878
0.454528130497
0.449094842334
0.442792834794
0.435563162848
0.470988607871
0.470268275532
0.468520133626
0.466099172399
0.462985526763
0.459143827744
0.45452956677
0.449091885044
0.442786403638
0.43555417924
0.470984543751
0.470263414369
0.468514726041
0.466093647834
0.462980216947
0.459139424449
0.454526263617
0.449089811794
0.442780636462
0.43554550608
0.470974762456
0.470251928485
0.468502417847
0.466081052234
0.462967609251
0.459126468036
0.454513164301
0.449078857634
0.442770084395
0.435534683197
0.470964914014
0.470241363176
0.468492674473
0.466070484095
0.462954634659
0.459111554034
0.454497142402
0.449063409695
0.442757923862
0.435523138907
0.470963797111
0.47024175209
0.468493643142
0.466071265193
0.462954866676
0.459110772764
0.454494290661
0.449056894839
0.442749646042
0.43551388132
0.470964031311
0.470243245957
0.468493993497
0.466071948786
0.462957208498
0.459112650845
0.454494524228
0.449053512262
0.44274446702
0.435507476005
0.470954556683
0.4702325971
0.468482991655
0.466060651355
0.46294564251
0.459101797063
0.454485451021
0.449048045351
0.442740181243
0.435502524562
0.470940939587
0.470217373962
0.468467051849
0.46604427664
0.462929248389
0.459086027964
0.454471491833
0.44903799773
0.442731796227
0.435494916859
0.470932263125
0.470208700397
0.468458110001
0.466034865834
0.46291923416
0.4590753557
0.454460172573
0.449026119301
0.442720368496
0.435485011882
0.470930128059
0.47020756536
0.46845699127
0.466032461105
0.462915826938
0.459070737563
0.454454046264
0.449018804737
0.442712311641
0.435476446915
0.470930455826
0.470208920081
0.468458308431
0.466033046434
0.46291537073
0.459069290511
0.454451511929
0.449014573639
0.442706563423
0.43546940099
0.470929838201
0.470208319678
0.468457763185
0.466032630279
0.462914727415
0.45906894561
0.454451009248
0.449011790191
0.442702104823
0.435463640096
0.47092867355
0.470207277342
0.468456642243
0.466031244735
0.462913190064
0.459066598709
0.454447860352
0.449008220733
0.442698175643
0.435459009173
0.470924279904
0.470202167886
0.468451419286
0.466026858028
0.462908923476
0.459062652022
0.454444597933
0.449007170855
0.442697384382
0.435456658976
0.470921414863
0.4701992797
0.468448945243
0.46602514791
0.462908386689
0.459063322884
0.45444506455
0.449007531488
0.442698196928
0.435456765434
0.470921678271
0.470200464273
0.468450418772
0.466026748709
0.462909802205
0.45906360253
0.454444752974
0.449006702266
0.442697344246
0.435456537749
0.47091924197
0.470197609773
0.468446991565
0.466022874475
0.462905469229
0.459059118824
0.454440828649
0.449002949704
0.442692424914
0.435451419639
0.470914265599
0.470191895898
0.468440856912
0.466016389852
0.462898718705
0.459052191189
0.454433820184
0.448996014147
0.4426858974
0.435445912134
0.470910517922
0.470188366244
0.468437866839
0.466013717978
0.46289632142
0.459049895397
0.454431504288
0.448993868682
0.442684418384
0.435445525071
0.470910204349
0.470188579395
0.468437946352
0.466013761325
0.462896403828
0.459050016359
0.454431701407
0.448994057265
0.442684723213
0.435446202969
0.470910076811
0.470188473483
0.468437610182
0.466013406192
0.46289606303
0.459049769588
0.454431616302
0.448993771672
0.442683924735
0.435444421251
0.470907648685
0.470185782058
0.468435043685
0.466010680911
0.462893149368
0.459046607094
0.454428084003
0.448989926249
0.442679395055
0.435438380167
0.470903809413
0.470181281082
0.4684300957
0.466005299764
0.462887324285
0.459040350708