/*--------------------------------*- C++ -*----------------------------------*\
| =========                 |                                                 |
| \\      /  F ield         | OpenFOAM: The Open Source CFD Toolbox           |
|  \\    /   O peration     | Version:  v2012                                 |
|   \\  /    A nd           | Website:  www.openfoam.com                      |
|    \\/     M anipulation  |                                                 |
\*---------------------------------------------------------------------------*/
FoamFile
{
    version     2.0;
    format      ascii;
    class       volScalarField;
    location    "50";
    object      p;
}
// * * * * * * * * * * * * * * * * * * * * * * * * * * * * * * * * * * * * * //

dimensions      [0 2 -2 0 0 0 0];


internalField   nonuniform List<scalar> 
15000
(
0.172641892727
0.173890781945
0.176805982436
0.181857313563
0.190173948345
0.20382396971
0.226110606742
0.256950381707
0.328530147902
0.388574243193
0.164853526017
0.165116840141
0.165521700023
0.16566586495
0.164530937368
0.160849745161
0.151598225668
0.120866531419
0.0649684981578
0.189949890588
0.149273441872
0.148638796227
0.146945821983
0.14398518413
0.139071438726
0.131249084084
0.124618040896
0.118155321449
0.0654113022752
0.167371099289
0.13998282675
0.139583018514
0.138765965085
0.137713396595
0.136948059498
0.135171648388
0.134265854863
0.147869455275
0.108876449544
0.181186865353
0.139474313161
0.139457239682
0.139578388194
0.139939938651
0.141129420227
0.142164521485
0.140014980853
0.155722481181
0.122932315977
0.179128126609
0.138293804862
0.138262842264
0.138181477234
0.13796010031
0.138086371592
0.138925055392
0.134801793806
0.149529325257
0.120984791178
0.16042436994
0.134317074707
0.134142889555
0.133675855085
0.132709497688
0.131563462472
0.131895086605
0.126322997011
0.13884805268
0.113607077837
0.137577989632
0.131298593204
0.131066873041
0.130498234788
0.129261401051
0.127017467258
0.126339053835
0.118793058248
0.127177155724
0.102852591826
0.119491366715
0.131852158441
0.131475847256
0.130790975248
0.129547094739
0.126572817625
0.124741027548
0.115572722704
0.119757750229
0.0939649042219
0.109101697048
0.137203307351
0.136516277567
0.135436793207
0.134218184542
0.131291477105
0.129298375974
0.119656618343
0.121594857663
0.09464707357
0.103282410335
0.149610651958
0.148432006473
0.146434436892
0.144518737695
0.14143568559
0.139810700428
0.130695326931
0.131831337783
0.105752251515
0.106109202232
0.17190150068
0.170006508837
0.166451722502
0.162350377533
0.157410840047
0.15507852614
0.146630940519
0.147721810386
0.123355522559
0.116770144648
0.204802724875
0.202287211048
0.197293883876
0.19051609468
0.182218575919
0.177253082253
0.168363812015
0.168993124252
0.147315797754
0.135375731443
0.245257706536
0.242954456605
0.238245720731
0.230771341416
0.220275689037
0.211976948352
0.200850597554
0.198329180463
0.177970438261
0.161544954024
0.287736922941
0.287092904611
0.285509732349
0.281414826976
0.272684645173
0.263105233644
0.249022485842
0.241161443003
0.220061584805
0.199889239513
0.328039296996
0.329771691844
0.332978370546
0.335200647663
0.332285869662
0.325478615342
0.311050125113
0.299658207581
0.279535416792
0.260137971756
0.366270785759
0.369537539862
0.376117940161
0.383914365159
0.388184672162
0.388371229018
0.379800748001
0.371581176153
0.357031310497
0.341783042199
0.410085909636
0.412427892468
0.418269055943
0.427348947118
0.436530462652
0.445115966157
0.447899428833
0.448822651202
0.442243202272
0.431087411285
0.470720503715
0.470031119353
0.471067471904
0.476590353469
0.486781573686
0.5019612843
0.51728507802
0.530618871587
0.533143635784
0.525156201797
0.553767984998
0.549032059224
0.543823412762
0.543171048657
0.550398515556
0.567046259324
0.58843229197
0.609291822513
0.616654680081
0.605253927721
0.642655856732
0.636143125538
0.627393926647
0.621392942023
0.622673783831
0.633656958127
0.651012894299
0.669562874396
0.677109000904
0.664187656917
0.700362402818
0.696522465096
0.690627529868
0.684537473792
0.680950884208
0.684016668954
0.694841879503
0.712672883901
0.730992325365
0.726632469836
0.696805453772
0.699568553134
0.702276714471
0.70194561418
0.699200760335
0.699077079915
0.705675164102
0.724601656639
0.751745765383
0.755529986617
0.640101805971
0.650935924421
0.665503273529
0.676748280763
0.682019475767
0.68467703005
0.692004560551
0.710532042297
0.735426828038
0.731209498445
0.589404943526
0.605806037636
0.630695615163
0.654391054149
0.672903575979
0.68642028374
0.700928768688
0.717953180459
0.73286390805
0.710956858739
0.627846181003
0.643207419739
0.669819384632
0.699733024352
0.728346920992
0.751688369049
0.769631964488
0.775623439677
0.766161690307
0.724755636333
0.806970287623
0.813786730939
0.83028421051
0.85233251492
0.876316636555
0.894273142041
0.898990611008
0.877891038975
0.831805248761
0.758820500167
1.10287811669
1.09529645478
1.09078563484
1.08865286927
1.08746097068
1.07664293752
1.04538467272
0.980787240358
0.888542058116
0.781289406186
1.41507087445
1.39105285447
1.35807918333
1.32034436854
1.27865529062
1.22182842963
1.14112989727
1.02992262532
0.900856385189
0.778281091781
1.60843123206
1.57195379925
1.51320542247
1.43912062592
1.35436973725
1.25235877002
1.13028368243
0.991888464486
0.855928062989
0.750828773953
1.57122055409
1.53160685685
1.45977340849
1.36501577899
1.2549434155
1.13038664338
0.996837946084
0.869462399079
0.768218175547
0.717322816661
1.2797229175
1.24824628896
1.18247342831
1.09168984091
0.984947451595
0.876570138479
0.774846754676
0.700910750247
0.672028335555
0.700652411812
0.802252257631
0.787981717206
0.746398353975
0.687708448521
0.620437172785
0.564465530366
0.531365846842
0.54267315115
0.606762976723
0.719329570192
0.266786364643
0.276023508379
0.272857917277
0.268094809696
0.266309231521
0.286338948948
0.341226808587
0.446837112424
0.59941004378
0.780841661355
-0.173795799217
-0.14187234929
-0.102528265868
-0.0467210582561
0.0247703724009
0.126043736508
0.2651401613
0.449555518663
0.665315687945
0.881072088295
-0.402694638894
-0.352589793642
-0.278694289038
-0.171873784738
-0.0393898641685
0.125935276677
0.323992197716
0.55279808468
0.790867181347
0.997098633548
-0.373959571498
-0.317793722807
-0.225058176751
-0.0891453992231
0.0773352440581
0.273143286486
0.48929405734
0.715280455567
0.924434808379
1.08074217845
-0.138382021115
-0.0855676749175
0.00791718445668
0.145921276252
0.313751093722
0.502603423471
0.696044480958
0.876893083603
1.01911142283
1.10611276342
0.193747145793
0.235113901064
0.31413275948
0.430477933969
0.570591900378
0.720376934904
0.861634018407
0.974354711153
1.03967889762
1.05518782771
0.49390017915
0.521217709788
0.576242508685
0.654767745661
0.747168064627
0.837796567005
0.91180504399
0.949448180553
0.941485814429
0.896339747571
0.669832902338
0.679988880565
0.707518666771
0.742417271512
0.781688623912
0.809396601139
0.816131486672
0.787177724942
0.721636546254
0.635228078468
0.674477937284
0.667493662951
0.669788358359
0.664650863976
0.656525839053
0.631585427887
0.585508906148
0.510255901676
0.410955415589
0.305934567989
0.518087168267
0.489768670122
0.472002425837
0.435527617267
0.392178530098
0.331163758184
0.252889680403
0.15496726444
0.0461038635466
-0.0555082717017
0.230621972704
0.185605535944
0.153618913496
0.0951820195793
0.0292683831098
-0.0516099859781
-0.143233719972
-0.242325113626
-0.339961895912
-0.424257182533
-0.125956181544
-0.1911191651
-0.232506884233
-0.305482811961
-0.385467694439
-0.476619972794
-0.56922689926
-0.65682785408
-0.732520618238
-0.788217200872
-0.495862131734
-0.584171841638
-0.635696651033
-0.722672775148
-0.813683979662
-0.911864322071
-1.00433375609
-1.07626043404
-1.12551355048
-1.15204741879
-0.823926528779
-0.954383191416
-1.01759606236
-1.11832012344
-1.22437762713
-1.33277924852
-1.43200534495
-1.49875915129
-1.53149867351
-1.53102897704
-1.06877992268
-1.22560509996
-1.32257993832
-1.44847387833
-1.58005117413
-1.70922489306
-1.83071109787
-1.91462283265
-1.95307290739
-1.93857675942
-1.1168491276
-1.32329602204
-1.45854390869
-1.63065667829
-1.81325542807
-1.98464200604
-2.15063164408
-2.28002099497
-2.3577676419
-2.35966182339
-1.0039500489
-1.21302226515
-1.37838215605
-1.60552512935
-1.84923495652
-2.08904306529
-2.32494618017
-2.52679905129
-2.67505095238
-2.72923590844
-0.67589224092
-0.916613583225
-1.10086759408
-1.36607794491
-1.66247683748
-1.97391344663
-2.29074168244
-2.58105238222
-2.82089752224
-2.9560941041
-0.275521104405
-0.44467729964
-0.630295046558
-0.91781645264
-1.25567077261
-1.6227018509
-2.01015301471
-2.38571975174
-2.72291690914
-2.95981345174
0.294545548657
0.130016677017
-0.029167121703
-0.307021619808
-0.657428787883
-1.05494581994
-1.48789518279
-1.92806171985
-2.34876198607
-2.69129522853
0.825064107607
0.756237033015
0.634875946865
0.389580434273
0.0578837335832
-0.337345467403
-0.782703274322
-1.25482068881
-1.72891582162
-2.15871594716
1.41901097589
1.34554436547
1.27083969463
1.07816774422
0.792122708499
0.430321667452
0.00717102879701
-0.460213214357
-0.950452499067
-1.43281649994
1.86552198022
1.86016068292
1.82299551374
1.68350004986
1.45562623038
1.14836106463
0.773096094046
0.340361370242
-0.131655949877
-0.625344622212
2.27369433023
2.24756253872
2.24132676303
2.15161533416
1.98265800597
1.73645212644
1.42280988999
1.04580754364
0.618410203275
0.14748306877
2.48804471579
2.50323244189
2.51374499522
2.45951580893
2.34061615155
2.15308191884
1.90241282596
1.58717156015
1.21654838618
0.793067503938
2.62867943853
2.61815127651
2.63751559832
2.607570563
2.52615378166
2.38589397495
2.19067922962
1.93502700612
1.62493490147
1.26150788913
2.60623750227
2.61935865226
2.63796015275
2.61971210882
2.56291203445
2.45846190694
2.30759530397
2.10318289326
1.84966531732
1.54946622709
2.53848300675
2.52888977011
2.54470478073
2.53236880736
2.49098787124
2.41121253446
2.29426581974
2.13296098367
1.93111016043
1.69240214883
2.37546320865
2.38194947512
2.39341798707
2.38313574994
2.35065039298
2.28823793455
2.19704707565
2.07061272895
1.91230153459
1.72784287768
2.2095581618
2.2006501731
2.20950232545
2.20039978312
2.17414510644
2.12462766956
2.05353520667
1.95550117439
1.83386446144
1.6950621167
2.00863955807
2.01117431169
2.01653821896
2.00784780853
1.98622113462
1.94704024881
1.89205705389
1.81722779309
1.725726471
1.62417141397
1.83418486242
1.82606099034
1.82982051218
1.82208255891
1.80451793758
1.77387412406
1.73205277591
1.67611481317
1.60895004263
1.53675245761
1.65849805595
1.65822223847
1.66000225364
1.6531259243
1.63915688654
1.615809802
1.58483933716
1.54419971638
1.49634674801
1.44662559483
1.51667778472
1.5092177904
1.5104068742
1.50481530861
1.49411059171
1.47682678789
1.45459335218
1.42598015619
1.39291492401
1.35973538119
1.38325313296
1.38118564764
1.38144743248
1.37687859537
1.3688598285
1.35644981415
1.34100593262
1.32151672198
1.29940429196
1.27800812543
1.27690809552
1.27003828085
1.27019894086
1.26668978513
1.26082151543
1.25210592267
1.24168947059
1.22882211194
1.21449605443
1.20115732425
1.17724782962
1.17396640827
1.17368405592
1.17086903878
1.16657488291
1.16054545879
1.15364953177
1.14531757488
1.13622749084
1.12807502712
1.09465197794
1.08841786055
1.08820446125
1.08603640834
1.08288488914
1.07868179356
1.07407679702
1.06862649722
1.06279470439
1.05768567461
1.01511808425
1.01161752411
1.0111954517
1.009395251
1.00699133136
1.00394393362
1.0007072537
0.996942362571
0.992950977425
0.989408027639
0.946012488887
0.940616222105
0.940325453252
0.938873064799
0.936933655647
0.934545144314
0.93204793017
0.929170719626
0.926102594696
0.923214122472
0.877895314126
0.874880145288
0.874469364276
0.873149207697
0.87146197264
0.869420979359
0.867276895228
0.864809061899
0.862119472567
0.859381743421
0.817416249826
0.81292352656
0.812634566645
0.811475395043
0.809924571706
0.808050370967
0.806047817505
0.803720919446
0.801121231242
0.798301178253
0.757435512094
0.755035313112
0.754644776869
0.753503535933
0.752019133175
0.750217331922
0.748254156921
0.745953303524
0.743324248654
0.740360922214
0.704076391473
0.700401275106
0.700113665143
0.699067526915
0.697630840271
0.695872848478
0.693921427726
0.691607795336
0.688926420636
0.685849878928
0.651425541511
0.649545246729
0.649170913704
0.648122527028
0.646727840875
0.645006471136
0.643069396202
0.640758733087
0.63805235803
0.634930120001
0.604831994371
0.601843722483
0.601561102836
0.600602549477
0.59926441011
0.597601260262
0.595705172176
0.593424488515
0.590739945243
0.587643227492
0.559247427408
0.557762023581
0.557412480749
0.556467230519
0.555194866096
0.553599891754
0.551765674451
0.549551940649
0.546934764088
0.543922696324
0.519147213953
0.516724625287
0.516460478959
0.515610862986
0.514416373839
0.512910571848
0.511162370988
0.509039222526
0.506525571163
0.503640129154
0.480242046368
0.479067965791
0.478756500332
0.477933169991
0.47681747343
0.475400908029
0.473748600463
0.471739807051
0.469356711685
0.466629261886
0.446152418253
0.444197403978
0.443971278815
0.443244952829
0.442213037714
0.440898474196
0.439355901019
0.437472954789
0.435239504276
0.432690950462
0.413246340271
0.412322645456
0.412064652028
0.411370616032
0.410419601104
0.409202890904
0.407773394999
0.406028858912
0.403956831221
0.401599347588
0.384457281568
0.382878416068
0.382692708091
0.382085755503
0.381215512841
0.380103065792
0.378792808987
0.37718831382
0.375282256328
0.373118518897
0.356738095109
0.355999323288
0.355789207663
0.355214124543
0.354420372548
0.353403539303
0.352206227223
0.350740000996
0.348995505175
0.347020320819
0.332460715884
0.331179119809
0.331032798395
0.330538069025
0.329822466314
0.32890325122
0.327813485758
0.326472839617
0.324879356524
0.323080032394
0.309085066325
0.308494509858
0.308331523418
0.307869690722
0.307225279137
0.306390799081
0.305397535405
0.304175192634
0.302721085698
0.301082674169
0.288551825657
0.287508367531
0.287399733611
0.287006890668
0.286428407263
0.285675494421
0.284772785416
0.283657164163
0.282330458399
0.280837555979
0.268753665694
0.268283530374
0.268161023303
0.267794999182
0.267274424356
0.266590436798
0.265767375047
0.264750294629
0.26353918167
0.262177846607
0.251311514534
0.250460781694
0.250383487118
0.250072975674
0.249604368284
0.248985521577
0.248235906561
0.247306058444
0.246199200312
0.244956119018
0.23446653115
0.234097659785
0.234007992613
0.233716175583
0.233291917568
0.232726894713
0.232040865765
0.231190578521
0.230177359703
0.22904057907
0.219585707934
0.218894296281
0.218841637615
0.218592469314
0.218207438954
0.217693107015
0.217065403214
0.216285037319
0.215355791864
0.214314132483
0.205188909526
0.204903046243
0.204838239089
0.204600988984
0.204249298268
0.20377648867
0.203198980707
0.202482289161
0.201628238184
0.200671904663
0.192439955104
0.191877165756
0.191841990181
0.191637363462
0.191314709868
0.190880714486
0.190348867593
0.189687676831
0.188900692971
0.188020357282
0.180089160392
0.179868313399
0.179821298791
0.179623569591
0.179325045096
0.178921954967
0.178428681255
0.177817649244
0.177090503245
0.17627830621
0.169131820847
0.168671644617
0.168648876284
0.168476670921
0.168199378216
0.167825190452
0.167366659815
0.166798825872
0.166124855728
0.165373557161
0.158505288491
0.158333564144
0.15830018299
0.158132930469
0.157874349552
0.157523436148
0.157094128972
0.156564981336
0.155937892856
0.15524077175
0.149059308836
0.148680130608
0.148667268332
0.148521872241
0.148281159652
0.147953567982
0.147551546243
0.147055831239
0.14647002536
0.145820618819
0.139886668923
0.13975134325
0.139729061552
0.13958827847
0.139364391947
0.139057087251
0.138679535277
0.1382150431
0.137666242003
0.137059172409
0.131714587377
0.13139900036
0.131393838498
0.131272087669
0.131064598015
0.130778644158
0.13042557605
0.129989875601
0.129475364721
0.12890682071
0.123766050077
0.123658417229
0.123644500814
0.123526791713
0.123334723006
0.123067866844
0.122737797199
0.12233066785
0.121849146477
0.121317351015
0.11666885239
0.116403437822
0.116403763896
0.116302446319
0.116125218876
0.115878286526
0.115571517894
0.1151918321
0.114742757649
0.114246945499
0.109752541794
0.109665383745
0.10965770286
0.109559866444
0.109396581418
0.109167517259
0.108882722568
0.108530526312
0.108113428063
0.107653243441
0.103561305305
0.10333599434
0.103340325657
0.103256656404
0.10310667147
0.102895938616
0.10263304228
0.102306975961
0.101921034877
0.101495666942
0.0975141656525
0.0974429483835
0.0974400123553
0.0973592819701
0.097221700564
0.0970272114736
0.0967845273001
0.0964839234405
0.0961278247977
0.095735920449
0.0920858534994
0.0918931157667
0.0919003868409
0.0918317926015
0.0917057549452
0.0915274306109
0.0913042587145
0.0910270964715
0.0906990066087
0.0903384003383
0.0867708362668
0.0867119400682
0.0867125342872
0.0866461382554
0.0865306045368
0.0863662050114
0.0861604533942
0.0859052879536
0.0856029405703
0.0852710629559
0.0819861470241
0.0818201360945
0.0818292799518
0.0817729890968
0.0816669608611
0.0815160355331
0.0813265828522
0.0810910029089
0.0808120205361
0.0805061433099
0.0772914181947
0.0772421362657
0.077245003448
0.0771900472056
0.0770925068363
0.0769529114807
0.0767776886992
0.0765601453763
0.0763022120862
0.0760196863916
0.0730547589795
0.072910862875
0.0729208444121
0.0728741574164
0.0727841873003
0.0726554697894
0.0724934352632
0.0722917217975
0.0720526605775
0.0717909802704
0.0688913133512
0.0688499317238
0.0688540248898
0.0688079396217
0.0687247222428
0.0686050627112
0.0684544500819
0.0682672680608
0.0680451240678
0.0678021132698
0.0651274248518
0.0650021514429
0.065012276055
0.0649730074782
0.0648958144909
0.0647849191309
0.0646449474513
0.0644705178308
0.0642635886531
0.0640373320972
0.0614246235308
0.0613897627557
0.0613944957523
0.0613553551751
0.0612835960485
0.0611800048524
0.0610492888857
0.0608866846428
0.0606935162426
0.0604824109476
0.0580725693872
0.0579632320891
0.0579731539045
0.0579397260873
0.0578728517124
0.0577764406026
0.0576544597497
0.0575023125211
0.0573216562327
0.0571243111506
0.0547718054025
0.054743188928
0.0547481299393
0.0547145141823
0.0546521018366
0.0545616991559
0.0544473719681
0.0543050460927
0.0541358283789
0.0539510786842
0.0517821628485
0.0516864905942
0.0516959139003
0.0516671432205
0.0516087533769
0.0515243362279
0.0514173146147
0.0512837340757
0.0511250147009
0.0509518148014
0.0488367539189
0.0488123936553
0.0488172690031
0.0487881128297
0.0487334250079
0.0486540173426
0.0485534214315
0.0484281288817
0.0482790781493
0.0481165280583
0.0461670892579
0.0460830859549
0.0460918273021
0.0460667951107
0.0460154555424
0.0459410960988
0.0458466860791
0.0457288024537
0.0455886794273
0.045435950794
0.0435366539603
0.0435159335996
0.0435205262526
0.0434949914257
0.0434467682925
0.0433766406406
0.0432876940085
0.0431768884317
0.0430450361757
0.042901411237
0.0411515224693
0.041077562631
0.0410855006001
0.0410635131952
0.041018118936
0.0409523066362
0.0408686660841
0.0407642168096
0.0406400434259
0.040504855766
0.0388017321562
0.0387838598497
0.0387880033397
0.0387654453179
0.0387227004267
0.0386605017245
0.0385815553019
0.0384832109817
0.0383661780125
0.0382388392637
0.0366707960754
0.0366054847263
0.0366125038849
0.0365929915487
0.0365526385198
0.0364941405205
0.0364197638304
0.0363268999443
0.0362165066925
0.036096455926
0.0345725099491
0.0345566802429
0.0345602873862
0.0345401712004
0.0345020616078
0.0344466409718
0.0343762941669
0.0342886999922
0.0341844842156
0.0340712191807
0.0326690731668
0.0326112674855
0.0326174174784
0.0325999414436
0.032563862144
0.0325116192436
0.0324452149969
0.0323623559968
0.0322638984855
0.0321569495011
0.0307953118504
0.030781653948
0.0307847691749
0.0307667158216
0.0307325845764
0.030683008611
0.0306201098177
0.0305418440727
0.0304487763445
0.0303477390249
0.0290956605704
0.0290444850913
0.029049845838
0.0290341278934
0.0290017841026
0.028955008935
0.0288955844308
0.028821481719
0.0287334753295
0.0286379760247
0.0274229906702
0.0274109280581
0.0274135386895
0.0273972753169
0.0273666543403
0.0273222429173
0.0272659304124
0.0271958979
0.0271126570051
0.0270223679133
0.0259058079832
0.0258603541818
0.0258648810916
0.0258506447794
0.0258215890735
0.0257796630709
0.0257264455536
0.0256601131803
0.0255813602254
0.0254959637836
0.0244137775508
0.0244029690493
0.0244050129563
0.0243902520274
0.0243626948768
0.0243228298191
0.0242723379404
0.0242095767992
0.024135007659
0.0240541799189
0.0230607981583
0.0230204764926
0.0230243027186
0.0230113714279
0.0229851712567
0.0229474258161
0.0228995616569
0.0228399519631
0.0227692429216
0.0226926450363
0.021730660911
0.0217211900452
0.0217229459599
0.0217096036118
0.0216847291384
0.0216487524241
0.0216032160788
0.0215466750536
0.0214795908934
0.0214069737811
0.0205238570212
0.0204881643322
0.0204915040887
0.0204797869266
0.0204561363684
0.0204220814259
0.0203789349213
0.0203252528691
0.0202616600602
0.0201928533849
0.019337497478
0.0193290826174
0.0193304983275
0.0193183828665
0.019295938715
0.0192635306125
0.0192225639343
0.0191717328577
0.0191114795047
0.0190463069503
0.0182612288296
0.0182294645133
0.0182322465599
0.0182215717105
0.0182002339982
0.018169570591
0.018130776214
0.0180825379087
0.0180254387276
0.0179636963075
0.0172036308444
0.0171960918477
0.0171971775508
0.0171861642319
0.01716591597
0.0171367288354
0.0170998818544
0.0170541884491
0.0170000719452
0.0169415743747
0.0162441649444
0.0162159359277
0.0162182559621
0.0162085374068
0.016189282787
0.0161616555522
0.0161267496246
0.0160833729816
0.0160320766996
0.0159766436819
0.0153016485002
0.0152949313985
0.0152957664227
0.0152857565387
0.0152674800004
0.0152411749276
0.0152080136177
0.0151669150746
0.0151182892109
0.0150657582394
0.0144464667397
0.0144213703608
0.0144233028302
0.0144144547976
0.0143970815474
0.0143721920437
0.0143407899465
0.0143017847771
0.0142557007603
0.0142059252257
0.0136066072624
0.0136005967452
0.0136012107835
0.0135921182575
0.0135756396139
0.0135519549231
0.013522136635
0.0134851927686
0.0134415203783
0.0133943604922
0.0128446427332
0.012822349071
0.0128239628195
0.0128159218153
0.0128002528909
0.0127778271804
0.0127495745082
0.012714500111
0.0126731053426
0.0126284185416
0.0120964452366
0.0120911214883
0.0120916038278
0.0120833682496
0.0120685059819
0.0120471553567
0.0120203155649
0.0119870864335
0.0119478585382
0.0119055270419
0.0114174091947
0.0113976222842
0.0113989898989
0.0113917035174
0.0113775903787
0.0113574017569
0.0113320028402
0.0113004880338
0.0112633393023
0.0112232583995
0.0107508390727
0.0107460852177
0.0107464333052
0.0107389825009
0.0107256179742
0.0107064317655
0.0106823426584
0.0106525229637
0.0106173503593
0.0105794062286
0.0101459436952
0.0101283830717
0.0101295443362
0.0101229647681
0.0101102891237
0.0100921587232
0.0100693722884
0.0100410984447
0.0100077984185
0.0099718788082
0.0095521723914
0.00954798672801
0.0095482857113
0.00954159147224
0.00952960550256
0.00951238601734
0.0094907842813
0.00946404514212
0.00943253732853
0.0093985550828
0.00901306989568
0.00899751301397
0.00899853329015
0.0089926258495
0.00898127391121
0.00896502667639
0.0089446254025
0.00891931142692
0.00888952436871
0.00885740033844
0.00848399212187
0.00848027688498
0.00848051279972
0.00847450359192
0.00846378398664
0.00844837913954
0.00842907224701
0.00840516927421
0.0083770228431
0.00834667038417
0.00800368683901
0.00798989486673
0.00799077931882
0.00798548656458
0.00797535100259
0.00796083612024
0.00794262191961
0.00792000974043
0.00789341577184
0.0078647359105
0.00753242482013
0.00752915969854
0.00752937878724
0.00752401959929
0.00751446567706
0.00750071495634
0.00748348537405
0.00746213936203
0.00743701474454
0.00740991853679
0.00710443472593
0.00709224695457
0.00709305648976
0.00708834860341
0.00707932384565
0.00706637580535
0.00705012979332
0.00702994707788
0.00700622136928
0.00698063154582
0.00668455410787
0.00668170122627
0.00668192036656
0.00667715753414
0.00666865973604
0.00665640526772
0.00664105299619
0.00662202082467
0.00659962936327
0.00657547652667
0.0063032081235
0.00629241868459
0.00629316471434
0.00628899411266
0.00628098309933
0.00626946539748
0.00625501404458
0.00623704706836
0.00621593450351
0.00619315769524
0.00592892012629
0.00592656023957
0.00592685180975
0.00592266426635
0.00591514833765
0.00590427501638
0.00589064981836
0.00587374317073
0.00585385815683
0.00583240377669
0.00558911601608
0.00558004920344
0.00558064882202
0.00557694864316
0.00556985421633
0.00555964269743
0.00554683558171
0.00553090037931
0.00551218185467
0.00549198603035
0.00526192906291
0.00525393327486
0.00525432569501
0.00525068147967
0.0052440462678
0.00523441792646
0.00522235482779
0.00520737424647
0.0051897589127
0.00517075246056
0.00494932295045
0.00494564108396
0.00494614219108
0.00494285436134
0.00493659312874
0.00492756279922
0.00491623085719
0.0049021145894
0.00488553506941
0.00486764371898
0.0046627996683
0.00465485141001
0.0046555041418
0.00465241093277
0.00464657035839
0.00463805248105
0.00462737735631
0.00461410763277
0.0045985060411
0.00458166630686
0.00438278025814
0.00438096174791
0.00438132817643
0.00437839518862
0.00437288337303
0.00436491343796
0.00435490042193
0.00434240895525
0.00432773630816
0.00431189370681
0.00412903923479
0.00412200790944
0.00412263137011
0.00411992291728
0.00411478535475
0.00410727545272
0.00409785824538
0.00408613460662
0.00407234615875
0.00405745393082
0.00387968989584
0.00387832725124
0.00387867679985
0.00387611640948
0.00387129108081
0.00386428287959
0.00385546497739
0.00384444485048
0.00383149646956
0.00381750782045
0.0036539356158
0.00364809018385
0.00364862499678
0.0036462619346
0.00364176097665
0.00363515703547
0.00362686824363
0.00361653521252
0.00360438069868
0.0035912477391
0.0034362489471
0.00343123784861
0.00343166129194
0.00342947690664
0.00342526183806
0.00341910633069
0.00341135225316
0.00340164797158
0.00339024421593
0.00337791936057
0.00322900126579
0.00322676344222
0.00322724263332
0.00322517638929
0.00322124574416
0.00321545538607
0.00320817729752
0.00319908906454
0.00318839442427
0.00317683232318
0.00303880015459
0.00303380595071
0.00303439305664
0.0030325765763
0.00302890765914
0.00302351612908
0.00301671604476
0.00300819062156
0.00299816706153
0.00298732598648
0.0028536450275
0.00285256338859
0.00285294844635
0.00285113033645
0.00284771066993
0.00284265229229
0.0028362811653
0.002828308153
0.0028189189523
0.00280876005971
0.0026855613633
0.00268115485187
0.00268172134352
0.00268016051407
0.00267696741637
0.00267225746339
0.00266630742422
0.00265883216087
0.00265003803473
0.0026405202809
0.00252123339833
0.002520375448
0.00252071868627
0.00251914240273
0.0025161709802
0.00251175332626
0.00250617906548
0.00249919068222
0.0024909568721
0.00248204289647
0.00237216898196
0.00236829218097
0.00236883383468
0.00236750072222
0.00236472943089
0.00236061991619
0.00235541870239
0.00234887156924
0.00234116503593
0.00233281881779
0.00222652384691
0.00222579310731
0.00222613482329
0.00222478639128
0.00222221151792
0.00221836025979
0.00221349160795
0.00220737625264
0.00220016645544
0.00219235538958
0.00209447515399
0.00209107094862
0.0020915929605
0.00209046068971
0.0020880609082
0.00208448126592
0.00207994157998
0.00207421545219
0.00206747126134
0.00206016220282
0.0019655274762
0.00196490779489
0.00196524860711
0.00196409784308
0.00196186825402
0.00195851360389
0.00195426484747
0.00194891768023
0.00194260974726
0.00193577136556
0.00184867333093
0.00184568218904
0.00184617916743
0.00184521645249
0.0018431380733
0.00184002064599
0.00183605944309
0.00183105248283
0.00182515179032
0.00181875273305
0.00173463086701
0.00173410512571
0.00173443717237
0.00173345344421
0.00173152192327
0.00172859969232
0.00172489207082
0.00172021647282
0.0017146971697
0.00170870938209
0.00163136722028
0.00162873648248
0.00162920449863
0.0016283847196
0.00162658342062
0.00162386729549
0.00162041001007
0.00161603106896
0.00161086733127
0.00160526306141
0.0015306473603
0.00153019747396
0.00153051741019
0.00152967575242
0.00152800069258
0.00152545266093
0.00152221477539
0.00151812382899
0.00151329210286
0.00150804628877
0.0014395102635
0.00143719517851
0.00143763331378
0.00143693400664
0.00143537060134
0.00143300084982
0.00142997983918
0.0014261463025
0.00142162396016
0.00141671237443
0.00135067185926
0.00135028160403
0.00135058452116
0.00134986180529
0.00134840642944
0.00134618148575
0.00134335080779
0.00133976813564
0.00133553537079
0.00133093664046
0.00127034826267
0.00126830680289
0.00126871146567
0.00126811149832
0.00126675148856
0.00126468071841
0.00126203824431
0.00125867924167
0.00125471576174
0.00125040819001
0.00119209261584
0.00119175582389
0.00119203813643
0.00119141401515
0.00119014581334
0.00118819873488
0.00118571983763
0.00118257737993
0.00117886432192
0.00117482771946
0.00112140114214
0.00111959884549
0.00111996898909
0.00111945038584
0.00111826274292
0.00111644738442
0.00111412970684
0.00111117910681
0.0011076976363
0.00110391168863
0.00105255431004
0.00105225980548
0.00105251886428
0.00105197530807
0.00105086484915
0.00104915432176
0.00104697647072
0.00104421184285
0.00104094571793
0.00103739288135
0.000990417971492
0.000988823018803
0.000989156989377
0.000988703367051
0.000987660548998
0.00098606233696
0.000984022611529
0.000981422687738
0.000978356030547
0.000975019295782
0.000929924468781
0.000929662610797
0.00092989552399
0.000929416648709
0.000928438539653
0.000926928937728
0.000925008498198
0.000922568116566
0.000919686760262
0.000916550897816
0.000875377510506
0.000873962530375
0.000874259793365
0.000873857707137
0.000872936222972
0.000871521877897
0.000869719072409
0.000867419234081
0.000864708753243
0.000861758350911
0.000822284274413
0.00082204751884
0.000822253415117
0.000821826341056
0.000820958771839
0.000819618827276
0.000817917154396
0.000815753355356
0.000813201324895
0.000810422939968
0.000774448576074
0.000773189938039
0.000773450643879
0.000773088571627
0.000772267992437
0.000771008551213
0.000769406935533
0.000767362976272
0.000764957206323
0.000762337693198
0.000727893254915
0.000727675492559
0.000727852965501
0.000727466049944
0.000726690046317