/*--------------------------------*- C++ -*----------------------------------*\
| =========                 |                                                 |
| \\      /  F ield         | OpenFOAM: The Open Source CFD Toolbox           |
|  \\    /   O peration     | Version:  v2012                                 |
|   \\  /    A nd           | Website:  www.openfoam.com                      |
|    \\/     M anipulation  |                                                 |
\*---------------------------------------------------------------------------*/
FoamFile
{
    version     2.0;
    format      ascii;
    class       surfaceScalarField;
    location    "50";
    object      phi;
}
// * * * * * * * * * * * * * * * * * * * * * * * * * * * * * * * * * * * * * //

dimensions      [0 3 -1 0 0 0 0];
oriented        oriented;


internalField   nonuniform List<scalar> 
29690
(
-1.37146688173e-08
0.000218168600394
-6.34499865781e-08
0.000654511192752
-1.6453953434e-07
0.00109087569438
-3.73924519848e-07
0.00152729042388
-7.98770739079e-07
0.00196381890896
-1.67217917152e-06
0.00240058140122
-3.48822360207e-06
0.00283782797176
-7.35435280516e-06
0.00327619659274
-8.85017220528e-06
0.00371012712333
0.0040042998982
0.000131793207695
-2.78366143789e-08
0.000218195919717
-1.1868976955e-07
0.000654600137129
-2.86279809463e-07
0.00109104205899
-5.57343653034e-07
0.0015275590768
-9.50583119048e-07
0.00196421170914
-1.48067630527e-06
0.0024011096844
-1.98695867641e-06
0.00283833361458
-9.28239952769e-07
0.0032751372711
1.13966139537e-05
0.00369779828403
0.00390886812136
0.000106824779383
-2.03631319865e-08
0.000218215781699
-7.78750381994e-08
0.000654655251292
-1.65601920863e-07
0.00109112868973
-2.75727238266e-07
0.00152766631029
-3.77122645047e-07
0.00196431286877
-4.59277440044e-07
0.00240118864442
-5.50180613162e-07
0.00283842435537
8.55655834554e-07
0.00327372871534
1.38694119208e-05
0.00368478276542
0.00382495662672
9.77782871695e-05
-8.38995787881e-09
0.000218223646107
-3.20311609723e-08
0.000654676591637
-6.51897618411e-08
0.00109116074404
-1.07938012196e-07
0.00152770713771
-1.5937666448e-07
0.00196436437887
-2.09673381722e-07
0.00240123719471
-9.01309714255e-08
0.00283830460585
1.69453588037e-06
0.0032719413819
1.74149877649e-05
0.00366905982432
0.00374918872043
9.31813610031e-05
-6.86019481449e-09
0.000218230044676
-3.25720517573e-08
0.000654700494934
-7.52677992203e-08
0.00109120268489
-1.39762942104e-07
0.0015277705633
-2.27124512404e-07
0.00196445313821
-3.10849793219e-07
0.00240131910785
-1.59252479202e-07
0.00283815412646
2.13599401791e-06
0.00326964219904
1.9865038651e-05
0.00365132820327
0.00368121329133
8.78386782527e-05
-7.90691507033e-09
0.00021823757454
-3.56609158143e-08
0.000654726560715
-8.28520721728e-08
0.0010912490139
-1.51985716442e-07
0.00152784017528
-2.4980294069e-07
0.0019645520344
-3.5774457462e-07
0.00240142743709
-1.55051802873e-07
0.00283795268007
2.65639063078e-06
0.00326682691798
2.17751058264e-05
0.00363220739854
0.00362004201786
8.29445206519e-05
-4.75008843474e-09
0.000218242056233
-2.28937995617e-08
0.000654743365664
-5.56300611683e-08
0.00109128136635
-1.07580122197e-07
0.00152789338784
-1.94985788804e-07
0.00196464039768
-2.71986134852e-07
0.002401506834
5.57705912814e-08
0.00283762636749
3.5208319975e-06
0.00326335954867
2.37548586876e-05
0.00361197342721
0.00356500905798
7.87856724578e-05
2.31355181104e-09
0.000218239648057
5.36787310233e-09
0.000654740601432
4.36113476737e-09
0.00109128260459
-5.2712627274e-09
0.00152790426576
-3.2233147649e-08
0.00196466881246
9.08402040331e-09
0.00240146672975
6.07719204462e-07
0.00283702986021
4.97523108171e-06
0.00325899196091
2.64103269263e-05
0.00359054016877
0.0035148649415
7.65538019971e-05
1.28391857305e-08
0.00021822661344
4.82638195442e-08
0.000654705959393
1.00269458014e-07
0.00109123089786
1.66905607657e-07
0.00152783867785
2.4962808229e-07
0.00196458734095
4.36102075083e-07
0.00240128168826
1.38275739833e-06
0.0028360855087
6.71995915862e-06
0.00325365709005
2.91357759609e-05
0.00356812764915
0.00346872756836
7.52743789612e-05
2.66034396001e-08
0.000218199914059
1.04440221058e-07
0.000654629288152
2.27596075061e-07
0.00109110849552
3.95450897868e-07
0.00152767274933
6.16847149045e-07
0.00196436853342
1.00055979329e-06
0.00240090119915
2.34679976301e-06
0.00283474264446
8.63299317472e-06
0.00324737512083
3.17963689529e-05
0.00354496837963
0.00342645752596
7.40700421978e-05
4.23969099604e-08
0.000218157903517
1.66468530712e-07
0.000654506694461
3.67236273844e-07
0.00109090954549
6.43003550938e-07
0.0015274014601
1.0061539197e-06
0.00196401033213
1.60571493336e-06
0.00240030768966
3.33838470027e-06
0.00283301567765
1.05150793109e-05
0.00324020278777
3.43163553681e-05
0.0035211715074
0.0033873107217
7.34695694627e-05
5.9682093084e-08
0.00021809951215
2.32137069878e-07
0.000654337499319
5.13928004094e-07
0.00109063148546
9.06656272143e-07
0.00152701735265
1.42059193662e-06
0.00196350392315
2.25222376489e-06
0.00239948646503
4.40666011678e-06
0.00283086860235
1.24716674534e-05
0.00323214280978
3.68024564882e-05
0.00349684608578
0.00335067480628
7.34483074713e-05
7.90052451671e-08
0.000218022735201
3.04725139002e-07
0.000654118850439
6.72163465783e-07
0.00109026987648
1.1898533755e-06
0.0015265143288
1.87089620802e-06
0.00196283318379
2.95357304674e-06
0.00239841850246
5.59178776033e-06
0.00282824114107
1.4536798734e-05
0.00322320330725
3.93571325726e-05
0.00347203482967
0.0033164337302
7.361038043e-05
1.02497075141e-07
0.000217923097761
3.93265598554e-07
0.000653837636878
8.65878027121e-07
0.00108980458204
1.5352049536e-06
0.00152586128004
2.42215263448e-06
0.00196195660132
3.78331984065e-06
0.0023970741188
6.99638834791e-06
0.00282503773269
1.69226495444e-05
0.00321328566398
4.22127403581e-05
0.00344675753879
0.00328453426804
7.41290571444e-05
1.28635995049e-07
0.000217795384427
5.00332384672e-07
0.000653476113246
1.10097201876e-06
0.00108920740633
1.96015989235e-06
0.00152502051937
3.09893275097e-06
0.00196082347789
4.79563543281e-06
0.00239539847856
8.6772395111e-06
0.0028211643903
1.96971639553e-05
0.00320228224293
4.53859478414e-05
0.0034210877323
0.00325453071674
7.54147576133e-05
1.55145696242e-07
0.000217639805516
6.13378632361e-07
0.000653027504244
1.35800936179e-06
0.0010884644996
2.43042415037e-06
0.00152396575092
3.87058036045e-06
0.00195938827987
6.03117580446e-06
0.00239326211644
1.06979778333e-05
0.00281650631423
2.29154945878e-05
0.00319009298718
4.90291382652e-05
0.00339499951332
0.00322571160966
7.78846088366e-05
1.76010752447e-07
0.000217461933813
7.03322664055e-07
0.000652504273919
1.57417084227e-06
0.00108759351475
2.83475960403e-06
0.00152271838545
4.56052098678e-06
0.00195766744175
7.26161764092e-06
0.00239058567804
1.26937043863e-05
0.00281108574603
2.60278274256e-05
0.00317679532196
5.2645001912e-05
0.00336841318215
0.00319708534519
8.13158952347e-05
1.84748489605e-07
0.000217275316222
7.45463851148e-07
0.000651943665428
1.68565425924e-06
0.00108665312469
3.05208575913e-06
0.00152136000505
4.96700234912e-06
0.00195575893806
8.04905855242e-06
0.00238752595363
1.41063113521e-05
0.00280503816675
2.84669308161e-05
0.00316247500494
5.5858384338e-05
0.00334104837324
0.00316756582781
8.54262454628e-05
1.80581732787e-07
0.000217094038846
7.25415296888e-07
0.000651394347267
1.6527356102e-06
0.0010857249127
3.00584655477e-06
0.00152000861839
4.94292172545e-06
0.00195382590076
8.07507099354e-06
0.00238440919881
1.44848004132e-05
0.00279863646534
2.9644026985e-05
0.00314734627552
5.76441953105e-05
0.00331306403672
0.00313633632592
8.89153618984e-05
1.62488325011e-07
0.000216933217847
6.38374103251e-07
0.000650911801334
1.45877178168e-06
0.00108490482554
2.6576309814e-06
0.001518806093
4.40627607732e-06
0.00195207478877
7.31296090203e-06
0.00238151203971
1.37287895978e-05
0.00279221526637
2.92462847795e-05
0.00313184264595
5.76778246272e-05
0.00328462429319
0.00310272182189
9.13127006419e-05
1.29781221748e-07
0.000216808097644
4.88425864988e-07
0.000650544057801
1.1225461003e-06
0.00108427198838
2.05169831353e-06
0.00151785765954
3.51920914895e-06
0.00195059707137
6.12336818334e-06
0.00237889180941
1.26173065911e-05
0.00278569712209
2.86661948697e-05
0.00311578606834
5.80462128788e-05
0.00325519817133
0.00306688783929
9.38933078027e-05
8.17607966655e-08
0.000216728109165
2.95745281113e-07
0.000650320163687
6.66481569359e-07
0.0010838973519
1.1850352507e-06
0.0015173019005
2.1007126542e-06
0.00194967763255
4.09940665728e-06
0.00237682708342
1.0151367183e-05
0.00277963577358
2.57019141953e-05
0.00310018113682
5.54890778799e-05
0.00322535809977
0.00302831689861
9.40783738682e-05
3.42672696171e-08
0.00021669023685
1.08536900698e-07
0.000650224592895
2.29862997122e-07
0.00108376438588
3.78859331752e-07
0.00151711566918
6.53466245669e-07
0.00194941512143
1.74770003051e-06
0.00237564772216
6.66936791362e-06
0.00277473706875
2.09912030367e-05
0.00308577145059
5.07828534642e-05
0.00319552609648
0.00298796691027
9.11653998473e-05
1.41200186054e-08
0.000216666040127
2.20196593338e-08
0.000650182124226
7.60161933365e-09
0.00108377258053
-1.12299858861e-07
0.00151720275996
-6.60400662841e-08
0.00194940601049
7.69567024876e-07
0.0023747280569
5.57822085356e-06
0.00276997617466
2.0538067239e-05
0.00307072654562
5.2181889338e-05
0.00316387200473
0.0029488176901
9.13971059666e-05
4.79108758821e-08
0.000216610223076
1.25639457903e-07
0.000650075246604
2.89182992417e-07
0.00108362845559
3.64654013995e-07
0.00151710323426
7.56680643468e-07
0.0019490887395
2.1691760676e-06
0.00237321943182
8.4427333067e-06
0.00276378200619
2.59202906611e-05
0.00305318644046
5.90880102861e-05
0.00313074985917
0.00291395649121
9.40550345241e-05
1.31619272307e-07
0.000216482448699
3.81398020867e-07
0.000649802972286
8.11077266428e-07
0.00108325200177
1.31636181915e-06
0.00151657267521
2.44192763402e-06
0.0019480618794
5.14222361446e-06
0.00237042987761
1.37662168656e-05
0.00275525505881
3.35394348829e-05
0.0030333994137
6.57554554701e-05
0.00309863768705
0.00288401756067
9.58362646683e-05
2.21698686451e-07
0.000216279675058
6.78897528527e-07
0.000649338794218
1.43080755464e-06
0.00108258237816
2.45217911994e-06
0.00151553494185
4.30141376268e-06
0.00194631924281
8.45206982083e-06
0.00236624389921
1.90659380942e-05
0.00274473740755
3.9879083219e-05
0.00301265534084
7.02652028884e-05
0.00306840417594
0.00285731690107
9.71230529154e-05
2.80727966317e-07
0.000216038957095
8.82351629896e-07
0.000648748641239
1.96102712012e-06
0.00108160725163
3.45527106173e-06
0.00151404801219
5.93782485504e-06
0.00194393360172
1.12286340156e-05
0.00236099770061
2.30722100055e-05
0.00273297662059
4.44006535005e-05
0.00299147719043
7.32058544896e-05
0.00303977269085
0.00283283799193
9.78332795069e-05
2.87884093511e-07
0.00021579910396
9.79070540321e-07
0.00064809099874
2.20135468196e-06
0.00108048157592
4.00071603926e-06
0.00151228684631
7.02857452633e-06
0.00194096589473
1.31654983499e-05
0.00235501225724
2.56972789933e-05
0.00272048238712
4.71336082303e-05
0.00297027311449
7.45445778082e-05
0.00301252850744
0.00280980631424
9.76871436591e-05
2.35284474136e-07
0.00021561157403
9.15095611159e-07
0.000647474191562
2.07521669335e-06
0.00107938469334
3.97831990042e-06
0.00151048186489
7.33345967179e-06
0.00193762250382
1.39689254049e-05
0.00234863395941
2.66252848092e-05
0.00270782555094
4.76132124007e-05
0.00294956006679
7.3641689394e-05
0.00298662573195
0.00278765374738
9.58426473126e-05
1.27921826912e-07
0.00021551401737
7.16281606883e-07
0.000646966078435
1.78106673761e-06
0.00107833257062
3.66160831234e-06
0.00150874308422
6.70867532096e-06
0.00193453243011
1.33222494084e-05
0.00234235529022
2.54860746417e-05
0.00269560672209
4.53806275678e-05
0.0029299372068
6.97248281276e-05
0.00296233836553
0.00276651718692
9.08279871931e-05
-2.91649751419e-08
0.000215543487884
3.71472105129e-07
0.000646665613172
1.01343736045e-06
0.00107763125899
2.55500175834e-06
0.00150740419679
4.94326344147e-06
0.00193204837951
1.11167202721e-05
0.00233655783136
2.22249475683e-05
0.00268440642572
4.04299829848e-05
0.00291194717401
6.26948124214e-05
0.0029400380199
0.00274682251374
8.22655462381e-05
-1.90673407504e-07
0.000215704376702
-7.47725202725e-08
0.000646654821763
4.13182424486e-08
0.00107740401022
9.24115428126e-07
0.0015067471179
2.45148947365e-06
0.00193039771762
7.46664604008e-06
0.00233188531376
1.69138384123e-05
0.00267483833104
3.28194205684e-05
0.0028961377972
5.27004405176e-05
0.00292002114461
0.00272866158522
7.06482228282e-05
-3.65710769211e-07
0.000216008559592
-6.65865132037e-07
0.000647053077573
-1.22574000648e-06
0.00107780851395
-1.26087152973e-06
0.00150701475195
-7.43560293515e-07
0.00192974631786
2.61863583881e-06
0.00232878407425
9.96588240125e-06
0.00266736043065
2.30615252912e-05
0.00288298961833
4.00240351031e-05
0.0029028247226
0.00271289916293
5.54935837403e-05
-5.24876257634e-07
0.000216460877481
-1.29824497087e-06
0.000647908570474
-2.61397466725e-06
0.00107896789236
-3.71465288996e-06
0.00150831114269
-4.36102784758e-06
0.00193027663462
-2.85707230686e-06
0.00232739548853
2.24509182309e-06
0.00266212839712
1.23216717559e-05
0.00287269130444
2.59853813548e-05
0.00288884524352
0.00270052915632
3.80073891472e-05
-6.67723675457e-07
0.000217049974629
-1.95116090909e-06
0.000649237426152
-4.01792281305e-06
0.00108089488414
-6.21883084377e-06
0.00151063352001
-8.17696672974e-06
0.00193215091907
-8.58923611469e-06
0.00232775282548
-5.79920498068e-06
0.00265922872685
1.17373129828e-06
0.00286534904308
1.14041971644e-05
0.00287825462598
0.00269272607044
1.88283604101e-05
-7.91127341462e-07
0.000217780713859
-2.57238163888e-06
0.000651029054066
-5.34103294622e-06
0.00108357287558
-8.64070799706e-06
0.00151395786877
-1.18966596302e-05
0.001935364954
-1.4153420989e-05
0.00232977904794
-1.3587927492e-05
0.00265856721185
-9.36771106547e-06
0.00286065248894
-2.58225635509e-06
0.00287108808004
0.00269073755135
-9.61624606205e-07
-9.12518627226e-07
0.000218647377412
-3.17209264338e-06
0.000653248600334
-6.57216808942e-06
0.0010869213949
-1.08629235691e-05
0.00151816208994
-1.52466506617e-05
0.00193973486653
-1.90135542959e-05
0.0023331699329
-2.01510446776e-05
0.00265963297186
-1.8189563637e-05
0.00285816219562
-1.54660378177e-05
0.00286801216106
0.00269560714193
-2.06732705679e-05
-1.01624186071e-06
0.000219644930133
-3.68474838546e-06
0.00065583638415
-7.58007008174e-06
0.00109081006127
-1.2662236744e-05
0.00152305686736
-1.78858819006e-05
0.00194496042246
-2.27073871912e-05
0.00233752554949
-2.50423211014e-05
0.00266190237071
-2.53217581345e-05
0.00285792825537
-2.73792630685e-05
0.00286976410275
0.00270714523979
-3.9204714862e-05
-1.1139740051e-06
0.000220756131234
-4.10168157499e-06
0.000658699908728
-8.36503069998e-06
0.00109508150819
-1.40030989024e-05
0.00152841801514
-1.97466361862e-05
0.00195068633858
-2.51174975252e-05
0.00234239587983
-2.80758796306e-05
0.00266479051763
-3.00632969816e-05
0.00285946873019
-3.61030108743e-05
0.00287555871283
0.00272377453651
-5.29660042383e-05
-1.19920001688e-06
0.000221969016008
-4.44003550043e-06
0.000661790887658
-8.96852907573e-06
0.00109963276627
-1.4999724326e-05
0.00153410831145
-2.10542626046e-05
0.00195670254202
-2.66212922455e-05
0.0023474697732
-2.97559555296e-05
0.00266783142912
-3.24250158224e-05
0.00286178960397
-4.07601879927e-05
0.0028837008344
0.00274476851026
-6.19379645246e-05
-1.25005961853e-06
0.00022323918317
-4.73219175233e-06
0.000665113659538
-9.55145662867e-06
0.00110446195937
-1.59407370494e-05
0.00154013653482
-2.23814772225e-05
0.00196306066176
-2.81207799793e-05
0.00235276745637
-3.12977770481e-05
0.0026708842296
-3.39507461986e-05
0.00286419525113
-4.29858841946e-05
0.00289258314224
0.00276859469801
-6.69585711914e-05
-1.15570177907e-06
0.000224415785074
-4.89547955456e-06
0.000668703855565
-1.01838704269e-05
0.00110975273232
-1.71229759893e-05
0.00154673065348
-2.43250131328e-05
0.00197015706569
-3.06230535797e-05
0.0023587026427
-3.4076913912e-05
0.0026741798755
-3.62818347746e-05
0.00286624876276
-4.42692912447e-05
0.00290043394233
0.00279217111696
-6.79587918155e-05
-8.82248890938e-07
0.000225315750408
-4.77369060559e-06
0.000672478625679
-1.06932247446e-05
0.00111566336772
-1.84498040957e-05
0.00155421643359
-2.69349567122e-05
0.00197852207365
-3.4530402074e-05
0.0023660502143
-3.91542397621e-05
0.00267863053151
-4.12898190379e-05
0.00286831287382
-4.72610165426e-05
0.00290628615333
0.00281238484028
-6.7560231839e-05
-4.36851225545e-07
0.000225765140023
-4.0853511701e-06
0.000676065952947
-1.04933002981e-05
0.00112207057704
-1.91191568638e-05
0.00156268117963
-2.90997048133e-05
0.00198842138716
-3.88968954888e-05
0.00237571664616
-4.63135805842e-05
0.00268590035019
-5.0113921742e-05
0.00287208673972
-5.43991371029e-05
0.00291047123269
0.00282816592149
-7.02568288195e-05
7.2503415316e-07
0.000225050130493
-1.93577137673e-06
0.000678714809481
-8.22854102972e-06
0.00112836851901
-1.73521435154e-05
0.00157176260195
-2.85441642309e-05
0.00199956230485
-4.13918857086e-05
0.00238855350178
-5.37862782118e-05
0.00269816469904
-6.32291077301e-05
0.00288152560687
-7.04873401441e-05
0.00291764308989
0.00284182624305
-8.42222340328e-05
3.01486160253e-06
0.000222028479829
2.60168422487e-06
0.000679189036971
-1.94750977788e-06
0.00113289953249
-1.02709134291e-05
0.00158020273544
-2.16543494488e-05
0.00201092120631
-3.73949845812e-05
0.00240442874122
-5.67472941193e-05
0.00271743370533
-7.738676654e-05
0.00290218368925
-9.67339860092e-05
0.00293693788288
0.00286272491473
-0.000117702964088
6.25758512342e-06
0.000215756917772
1.18583643297e-05
0.000673692313435
1.11899794064e-05
0.00113354599897
6.16097262872e-06
0.00158545775699
-2.74667433372e-06
0.00201982553978
-1.85948719546e-05
0.0024205614146
-4.39885254588e-05
0.00274277993121
-7.98245309452e-05
0.00293811418893
-0.000122554213183
0.00297969332833
0.00290600608891
-0.000165868377746
1.00200598527e-05
0.000205701923648
2.51384901748e-05
0.000658702804472
3.42086010387e-05
0.00112441437974
3.83762247307e-05
0.00158160581498
3.55996745732e-05
0.00202259067051
2.59554399446e-05
0.00243063290829
5.59934808e-07
0.00276818688287
-4.76131852761e-05
0.00298652755573
-0.000119673004188
0.00305190147373
0.002988483929
-0.000202106100342
1.37522315376e-05
0.000191916798016
3.96851198669e-05
0.000632909425406
6.4812534403e-05
0.00109922017598
8.55783659668e-05
0.00156115052339
9.8654881395e-05
0.00200948335928
0.00010393489988
0.00242583869789
9.00935994557e-05
0.00278204166303
4.3264730501e-05
0.00303374474767
-4.80770022426e-05
0.00314347854539
0.00311439559693
-0.000173841920787
1.66831632992e-05
0.000175197531566
5.40904400491e-05
0.000595613813969
9.75922322018e-05
0.00105562049731
0.00014076227539
0.00151826240794
0.000180258577982
0.00196987561999
0.000211713098525
0.00239491518604
0.000224244949938
0.00276948835468
0.00020033772973
0.00305815142502
0.000118873183413
0.00322524226127
0.0032583889056
-2.49083030948e-05
1.85240049895e-05
0.000156657731667
6.56296854401e-05
0.000548612855005
0.000127805185068
0.000993372270048
0.00019666566817
0.00144961045485
0.000266952387846
0.00189946084121
0.000333953634393
0.00232840852855
0.000386217938377
0.00271715025604
0.000406488814246
0.00303846887112
0.000369349210774
0.00326268557418
0.00337166310916
0.000256358997459
1.86490920843e-05
0.000138009458047
7.21598308061e-05
0.00049515485892
0.000150034066637
0.000915445189737
0.000243251231774
0.00135652276332
0.000345253542196
0.00179732371578
0.000450873721526
0.00222320445449
0.000549752859328
0.00261816959142
0.000626951370228
0.00296185294431
0.000658375656936
0.00323150935216
0.00341035265434
0.000620032253533
1.78496750379e-05
0.00012018155698
7.35410277e-05
0.000439513543726
0.000161417284575
0.000827563749652
0.000273514268728
0.00124452648657
0.000402906832018
0.00166784807552
0.000544091799642
0.00208234280828
0.000688219170145
0.00247394085008
0.000823542713412
0.00282701534138
0.000930459719888
0.00312475650302
0.00335499824256
0.000986175335068
1.58705511367e-05
0.000104350536077
7.01045839078e-05
0.000385306523435
0.000161634935515
0.000736069223941
0.000284698785205
0.0011215304513
0.000433181234337
0.00151934391294
0.000601726288174
0.00191402557816
0.00078305987665
0.00229254401108
0.000968166982055
0.00264225681506
0.00114239325793
0.00295061407891
0.00321062446087
0.0012870834328
1.39326810917e-05
9.04635677705e-05
6.37523550738e-05
0.000335503106566
0.000152898459306
0.000646999678135
0.000278532511635
0.000995956020041
0.000436092788705
0.00136183974479
0.000620776875853
0.00172948208395
0.000826881133874
0.00208643976663
0.0010475044542
0.00242184374868
0.00127206409869
0.0027260651894
0.00299686746594
0.00148608599
1.16325124534e-05
7.88806094449e-05
5.56803987587e-05
0.000291466528689
0.00013827710734
0.000564505959776
0.000259368812696
0.000874896844819
0.000416482040187
0.00120484266325
0.000605834255604
0.00154017695272
0.000823197364754
0.00186915368318
0.00106308500779
0.00218202476762
0.00131779806083
0.00247135208587
0.00273900688124
0.00157583109499
9.89516564426e-06
6.90270976019e-05
4.7609373007e-05
0.000253732745514
0.000121129155302
0.000491097574794
0.000232679088904
0.000763334122601
0.000381823048308
0.0010558554163
0.00056590361759
0.00135605077228
0.0007821296242
0.00165307616221
0.00102593519716
0.00193817816587
0.00129138778085
0.00220588297588
0.00246168257789
0.00156878384292
8.15302224275e-06
6.09072145044e-05
4.01104297228e-05
0.000221740132153
0.000103956981663
0.000427357137837
0.000203304999644
0.0006639103044
0.00033958311109
0.000919745868544
0.000511300080754
0.0011841770012
0.000716792647695
0.00144776191216
0.000951930731765
0.00170289391254
0.00121188119907
0.00194591596921
0.00218523204291
0.00148832737587
6.9911970771e-06
5.39369724834e-05
3.38589698987e-05
0.000194812054981
8.83764498082e-05
0.000372928899883
0.000174800418629
0.000577372698453
0.000295754396422
0.000798961752561
0.000450595138696
0.00102910878338
0.00063864393478
0.00125993772207
0.00085595715853
0.00148536124895
0.00109854946068
0.00170333224579
0.00192421064941
0.00135950328412
5.83958739787e-06
4.81157305384e-05
2.86028255653e-05
0.000171987448201
7.49764580643e-05
0.00032664553598
0.000149127883073
0.000503075354113
0.000254183238763
0.000694080160072
0.00039009987844
0.00089290963662
0.000556848518132
0.00109342644409
0.000750880217302
0.00129106903783
0.000968728926175
0.00148551850591
0.00168792501682
0.00120491125971
5.0704807843e-06
4.30558016293e-05
2.43511802239e-05
0.000152632540042
6.36345060473e-05
0.000287428567763
0.000126623215653
0.000439921705299
0.000216364822318
0.000604485970538
0.000333083853967
0.000775881959379
0.000477159540503
0.000949593327113
0.000645415976475
0.00112253146784
0.000835155030641
0.00129583699249
0.00148079733665
0.00104215679972
4.25185382708e-06
3.88141721662e-05
2.06629154929e-05
0.000136152276181
5.38694472445e-05
0.00025428639092
0.000106892502031
0.000386723891635
0.000182511749853
0.000529000059038
0.000280902222004
0.000677175599662
0.000402670815094
0.000828041082125
0.00054503154816
0.000979891150189
0.000706096143932
0.00113483596726
0.00130384373126
0.000882914466091
3.67536903314e-06
3.51446716554e-05
1.752226587e-05
0.000122234506646
4.53815175946e-05
0.000226469221922
8.96089714114e-05
0.000342324942436
0.00015247342997
0.000466233228488
0.000234087921817
0.00059526024627
0.000335048870264
0.000727268522129
0.000453079676053
0.000861600192018
0.000586925177312
0.0010010502892
0.00115581021156
0.000734824160023
3.05567755193e-06
3.20956417896e-05
1.47238565824e-05
0.000110503422112
3.7960127029e-05
0.000203274610048
7.4501167633e-05
0.000305619201381
0.000126156022271
0.00041466180444
0.000192904778626
0.000528232892228
0.000275314802718
0.000645009932413
0.000371598078958
0.000765081997784
0.000481106195696
0.00089159296383
0.00103373255829
0.000603054709763
2.62365492469e-06
2.94758501699e-05
1.2351868502e-05
0.000100715772462
3.15543249621e-05
0.000184096183941
6.14899478722e-05
0.000275533074447
0.000103512627508
0.000372692736971
0.000157527367693
0.000473970969091
0.000224045696441
0.000578611576778
0.000301747477811
0.000687177968785
0.000390477323082
0.000802903389234
0.000933878132709
0.000490216763731
2.17919814008e-06
2.73006235611e-05
1.0308207755e-05
9.25356858189e-05
2.61384240924e-05
0.000168288146773
5.05454598156e-05
0.000250991319569
8.45559047801e-05
0.000338724398493
0.000128029426791
0.000430284998418
0.000181439714723
0.000525288972877
0.000243884448777
0.000624564173927
0.000315551725641
0.000731263797237
0.000852389142864
0.000396939319361
1.88880859731e-06
2.54133410168e-05
8.67049917534e-06
8.57077435525e-05
2.1716382754e-05
0.000155249996383
4.16441853637e-05
0.000230946731893
6.91979478748e-05
0.00031118942301
0.000104255209264
0.000395048727478
0.000147251379668
0.000482352390056
0.000197623163772
0.000574052334851
0.000255791288505
0.000673109586992
0.000785537088274
0.000322554079709
1.60339491989e-06
2.38108338637e-05
7.34940148183e-06
7.99219718803e-05
1.82225089984e-05
0.000144381208104
3.46523099935e-05
0.000214415175706
5.72077128747e-05
0.000288642751555
8.57955163575e-05
0.00036631064232
0.000120825521109
0.000447356064882
0.000162005046672
0.000532755397429
0.00020988969474
0.000625223695644
0.000729937965843
0.000265407545465
1.43409952421e-06
2.2375540088e-05
6.36298149077e-06
7.49569375698e-05
1.55648798573e-05
0.000135172716455
2.93615853359e-05
0.000200530152773
4.81875984964e-05
0.000269808724249
7.20056249139e-05
0.000342364854703
0.000101189639427
0.000418184283916
0.000135642046216
0.000498200919668
0.000175979660895
0.000584870066618
0.00068270184601
0.000223137783526
1.26844613237e-06
2.11050600654e-05
5.6137682069e-06
7.0579357349e-05
1.360349738e-05
0.00012717283689
2.54901775753e-05
0.000188565019301
4.1643476078e-05
0.000253639691105
6.20760409839e-05
0.000321821022844
8.71361596729e-05
0.000393118255858
0.000116847484811
0.000468396437856
0.000151825945878
0.00054986133618
0.000641497190999
0.000192952383503
1.17940394494e-06
1.99220762126e-05
5.08648527852e-06
6.66422712391e-05
1.22013944426e-05
0.000120040377447
2.27467258634e-05
0.000177949451917
3.70343277481e-05
0.000239325381346
5.51254430329e-05
0.000303630927594
7.73461379518e-05
0.000370876668672
0.000103797652008
0.000441856866963
0.000135054008548
0.000518562258706
0.000604561163894
0.0001719095081
1.08501478145e-06
1.88327688826e-05
4.69455412023e-06
6.30050777184e-05
1.12056827153e-05
0.000113508904692
2.08237170025e-05
0.000168268098174
3.38298168371e-05
0.000226287478487
5.0317296154e-05
0.00028705375665
7.05937431822e-05
0.000350568369086
9.48058009943e-05
0.000417558558816
0.000123473821384
0.000489840861085
0.000570662126574
0.000157288359746
1.03734985901e-06
1.77902527267e-05
4.41571116515e-06
5.96005479275e-05
1.04889886294e-05
0.000107411163469
1.94564098502e-05
0.000159241660628
3.15689111362e-05
0.000214136750807
4.69414764139e-05
0.000271597294721
6.58572044986e-05
0.000331610726779
8.84839654795e-05
0.000394845866511
0.00011528432562
0.000462977838661
0.000539006983914
0.000146850600524
9.73241887618e-07
1.68112608339e-05
4.18626712812e-06
5.63623592113e-05
9.94075428284e-06
0.000101630033979
1.84311875534e-05
0.0001506963638
2.98904080635e-05
0.000202636041918
4.4443841857e-05
0.0002569642146
6.23501028892e-05
0.000313656936104
8.3775205005e-05
0.000373333526889
0.000109128440086
0.000437554652554
0.000509123898398
0.000138917952316
9.40640818255e-07
1.58646932706e-05
4.00159329274e-06
5.32772930817e-05
9.49053459649e-06
9.6113219833e-05
1.75971610281e-05
0.000142536191329
2.85354064309e-05
0.000191653547572
4.24297149544e-05
0.000242991983913
5.95130181811e-05
0.000296520003717
7.99403380641e-05
0.000352817551153
0.000104070331607
0.000413348882967
0.000480752139187
0.000132344025289
8.85143695892e-07
1.49730929457e-05
3.82077875704e-06
5.03177364504e-05
9.08074361962e-06
9.08235520747e-05
1.68510552826e-05
0.000134714892575
2.73307531175e-05
0.000181127634781
4.06411079056e-05
0.000229605537341
5.69914726516e-05
0.000280114482766
7.65166033303e-05
0.000333202046405
9.95350845894e-05
0.000390251003437
0.000453753630395
0.000126431676019
8.55534243604e-07
1.41115051981e-05
3.65619990675e-06
4.74942276238e-05
8.69039564343e-06
8.57606775573e-05
1.61363805384e-05
0.00012721794946
2.61805519049e-05
0.000171037258364
3.89324594158e-05
0.000216778056817
5.45804747471e-05
0.000264408184235
7.32421672787e-05
0.000314449672649
9.51994826528e-05
0.000368212083566
0.000428056060166
0.000120793139841
8.01693351021e-07
1.3303248901e-05
3.4810345913e-06
4.47920181772e-05
8.29641697203e-06
8.09150251915e-05
1.54223249739e-05
0.00012004344951
2.5032052388e-05
0.000161380317632
3.72288513213e-05
0.000204507587547
5.21817131984e-05
0.000249398329076
6.99882503108e-05
0.000296552755473
9.09031594578e-05
0.000347215314796
0.000403623740983
0.000115231100142
7.71964980307e-07
1.25255079413e-05
3.31607086041e-06
4.22264130632e-05
7.90463784476e-06
7.62987075529e-05
1.47025216251e-05
0.000113197012928
2.38744093444e-05
0.000152163109135
3.55094665475e-05
0.000192799894358
4.97606066837e-05
0.000235089049435
6.67115369231e-05
0.000279513078406
8.65905656945e-05
0.000327254884799
0.000380436195261
0.000109674619358
7.19888023093e-07
1.17993444611e-05
3.14198683106e-06
3.97828245769e-05
7.50780482446e-06
7.19037543315e-05
1.39781835321e-05
0.000106680751307
2.27059513046e-05
0.000143389747439
3.37744803624e-05
0.000181661289641
4.73216152257e-05
0.000221486787696
6.34152434989e-05
0.000263332451092
8.22656928824e-05
0.000308324919392
0.000358474065166
0.000104125872698
6.91112914252e-07
1.11029497757e-05
2.98042917274e-06
3.74736580922e-05
7.1200442594e-06
6.7738390333e-05
1.32587216907e-05
0.00010049667284
2.15422109338e-05
0.00013506378117
3.20408139933e-05
0.000171094486623
4.48810191947e-05
0.000208591641092
6.01219038623e-05
0.000248007587934
7.7955253953e-05
0.000290414317379
0.000337714447884
9.8615654892e-05
6.4198033952e-07
1.0455206951e-05
2.81251074204e-06
3.52834499171e-05