/*--------------------------------*- C++ -*----------------------------------*\
| =========                 |                                                 |
| \\      /  F ield         | OpenFOAM: The Open Source CFD Toolbox           |
|  \\    /   O peration     | Version:  v2012                                 |
|   \\  /    A nd           | Website:  www.openfoam.com                      |
|    \\/     M anipulation  |                                                 |
\*---------------------------------------------------------------------------*/
FoamFile
{
    version     2.0;
    format      ascii;
    class       volScalarField;
    location    "50";
    object      k;
}
// * * * * * * * * * * * * * * * * * * * * * * * * * * * * * * * * * * * * * //

dimensions      [0 2 -2 0 0 0 0];


internalField   nonuniform List<scalar> 
15000
(
0.0598793764514
0.0598793060862
0.0598791476235
0.0598796760608
0.059880232248
0.0598801200885
0.0598785739503
0.0599012564314
0.0598719365897
0.0604101015908
0.0596398540282
0.0596401257678
0.059640029737
0.0596395113768
0.0596386917389
0.0596390012042
0.0596464849498
0.0596062873852
0.0597307555115
0.0610522595834
0.059401153324
0.0594016777978
0.0594020614989
0.0594029736918
0.0594049203377
0.0594058650073
0.059398804511
0.0594589357018
0.0600454228749
0.0618155487204
0.0591666007363
0.0591662911294
0.0591660275205
0.0591661046612
0.0591657543891
0.0591660354332
0.059182703313
0.0591910116322
0.0606926118961
0.0628169611172
0.0589307292466
0.0589317100482
0.0589320440665
0.0589322780959
0.0589339904312
0.0589371419124
0.0589276085634
0.0591854288146
0.0627475992448
0.0640279222363
0.0587006856877
0.0586998516835
0.0586994806313
0.0587000211595
0.0587005200283
0.0586994578423
0.0587507692747
0.0593297837587
0.0648717679248
0.0655800483894
0.0584676440714
0.0584689824891
0.0584691993018
0.0584686979591
0.0584695996102
0.0584790779619
0.0585247242716
0.059650089753
0.0671336263298
0.0673460516173
0.058241195185
0.0582404108772
0.0582403936277
0.0582406419233
0.0582417717947
0.058244493608
0.0583436656491
0.0600880015994
0.0691271549894
0.0691147187624
0.0580123022372
0.0580133853946
0.0580129945537
0.0580132310169
0.0580152620262
0.0580352809748
0.0582691991779
0.06090450101
0.0715169101994
0.0714501574522
0.057788514138
0.0577879053385
0.0577884930775
0.0577874989442
0.0577888376105
0.0578158335635
0.0582264432721
0.061684652006
0.0735061206032
0.0729088499973
0.0575618681296
0.0575628557847
0.0575624352471
0.0575648264216
0.0575721419057
0.0576348597838
0.0582911107682
0.0632535461996
0.0758843478423
0.0756611202434
0.0573462703207
0.0573448745175
0.0573451880655
0.0573412984585
0.057345164812
0.0574335864474
0.0584444808901
0.064812243232
0.0782241866973
0.0787623937412
0.0571142600326
0.0571163835072
0.0571174614413
0.0571245506201
0.0571468041755
0.0572423392491
0.058765180824
0.0677132942473
0.0806743493618
0.0819887263002
0.0569149379504
0.0569120889277
0.0569114543542
0.0569050671643
0.0569115045981
0.0571416660253
0.0592304903847
0.0704996128528
0.0835540833985
0.0860535139304
0.056673566787
0.0566768527489
0.0566797950596
0.0566907943299
0.0567425118465
0.057081685395
0.0597722192821
0.0734057604721
0.0863500392777
0.08968443338
0.0564890020199
0.0564860520367
0.0564846313377
0.0564831089101
0.0565149654477
0.0570678740269
0.0607633690858
0.0763203568347
0.0898655675076
0.094880615386
0.0562470289065
0.0562495707853
0.0562569661686
0.056273722532
0.0563984363815
0.0571221417985
0.0616868165066
0.079239959385
0.0930779568356
0.099170807282
0.0560642109866
0.0560623115312
0.0560589906558
0.0560721083194
0.0561583468788
0.0572395101977
0.0630093673269
0.0826038761429
0.0973071031449
0.105921730924
0.0558336394487
0.0558376150868
0.0558527386066
0.0558731890387
0.0560072647847
0.0574241879538
0.0644194105313
0.0856401490288
0.101389126982
0.112497114643
0.0556488923927
0.0556480107509
0.0556439874223
0.0556758034797
0.0559068819387
0.0576888830853
0.0663211931164
0.0895727788707
0.106164625045
0.121049100961
0.0554439127221
0.0554517661673
0.0554702245266
0.0555115482637
0.0558378782171
0.0580966320392
0.0684044530407
0.093114964019
0.112371648051
0.13397259137
0.0552380461494
0.0552424049623
0.0552525184614
0.0553120254912
0.0557877494928
0.0585993083255
0.0715196728924
0.0977127653831
0.118211718846
0.146605623288
0.0550859709728
0.0550972570856
0.0551074711413
0.0552005863523
0.0557747030466
0.0593917739838
0.0748966182004
0.103050255814
0.127741851727
0.174789396468
0.054869653066
0.0548793857591
0.0549121220508
0.0550048565365
0.0558207717858
0.0603160403716
0.0796434069151
0.111774162695
0.14771710379
0.201365387191
0.0547238268594
0.0547356439529
0.0547542022281
0.0548195604623
0.0559536882647
0.0618502477269
0.0855816617747
0.121405750365
0.161770138131
0.253072206084
0.0544955841343
0.0544926866137
0.0545531384416
0.0547306730351
0.0561903311009
0.0637830051258
0.0938235906133
0.136552447256
0.183874542162
0.252714949945
0.054262897179
0.0542534374576
0.0542734219684
0.0545995513699
0.0566207498172
0.0662591938031
0.103049370086
0.138049088965
0.180410636745
0.24908502114
0.053852478279
0.0538141066247
0.0537982341839
0.0543346301834
0.0572909675342
0.0705453827025
0.105053728659
0.136677367266
0.174672211022
0.238564486652
0.0531046524088
0.053023823732
0.0529739995822
0.0536774576824
0.0576078467879
0.0715018553543
0.103293474835
0.132053905917
0.165484805791
0.22291296854
0.051939527497
0.0518384859423
0.0517139172149
0.0525145105526
0.0568745116482
0.0711245066413
0.0993421221303
0.124408283314
0.15301097822
0.203379475646
0.0505163994064
0.0502756712377
0.0501076356876
0.0507969848181
0.055368175574
0.0698720158559
0.0936824918803
0.114558397824
0.138399817265
0.181577375318
0.0484371870495
0.0481471498884
0.0478816055536
0.0488379679486
0.0534131541008
0.0678398924262
0.0865358407118
0.103297438663
0.122550141858
0.158921133328
0.0462063112749
0.0459040098275
0.0456366125845
0.0463237622042
0.0507729597593
0.0640994630056
0.078520925033
0.0913570662842
0.106410469267
0.136291600205
0.0439122782263
0.0435105595125
0.0431166171249
0.043890208037
0.0481404389823
0.0591688682463
0.0699940779655
0.0796185105188
0.0912661586562
0.116286970688
0.0418377460862
0.0414539444721
0.0409014842388
0.041240912993
0.0450225831349
0.0544071333798
0.0619698803937
0.0687497702127
0.0776885681077
0.0981048877971
0.0404048251192
0.0399285907244
0.0392500246156
0.0405223024998
0.0435316649811
0.0493064687074
0.0549490663505
0.0595877796386
0.0662319473651
0.0826467532199
0.0394990449254
0.0389391340531
0.0382618918398
0.0401773896971
0.043762819896
0.0455062525329
0.0483901327492
0.0515675789892
0.0566100248808
0.0719463170199
0.0391313532877
0.0386936820921
0.0382552159893
0.039453693543
0.0423816037808
0.0428142821349
0.0443129658768
0.0463461655002
0.0520194951679
0.063493876447
0.0390438557389
0.0385771847482
0.0381769603204
0.038918392738
0.0411403224515
0.0413261332354
0.0424176510781
0.043201847555
0.0493200267483
0.0571990362051
0.038979694256
0.038533945671
0.038173150525
0.0391898057271
0.0404453806849
0.040397166175
0.0408854238758
0.0429415263218
0.0468772014249
0.0537752156135
0.0391538301182
0.0385505693985
0.0381908758234
0.0392539272872
0.0406409813233
0.0397178140897
0.0399729639966
0.0423223110267
0.0440437923055
0.0512967086942
0.0392227726576
0.0388886232717
0.0382657829194
0.0392765016073
0.0399824734881
0.0400345682898
0.0394173318679
0.0411297846324
0.0444228803551
0.0487229946943
0.0393016024205
0.0390474516013
0.038481352308
0.039334691355
0.0393181448549
0.0395707874048
0.0391419365973
0.0404988966996
0.0433191014264
0.0491256456992
0.0392103688969
0.0391353565556
0.0386523926573
0.0393988438232
0.0395325478512
0.0392571094297
0.0387181439035
0.0402263120531
0.0428088030545
0.0486749942429
0.0390083556672
0.0390483179724
0.0384986769602
0.0392920104798
0.0394684447124
0.0385971473151
0.0391252486924
0.0399534350299
0.0425632441981
0.046514544546
0.0391788259398
0.0389038083619
0.0387553127695
0.0388911651557
0.0394387937554
0.0390748243332
0.0392500238639
0.0400686609728
0.042997959686
0.0474447880055
0.0403738436252
0.0395662997967
0.0388397272405
0.0391893631468
0.0394073041915
0.0387717164454
0.0393129738441
0.0402980247825
0.0431041104041
0.0475138079655
0.0419246140816
0.0412690598128
0.0402024332156
0.0395561887557
0.0394343426391
0.0393689478951
0.0394164963166
0.0398870474799
0.0422594443777
0.0472011718202
0.0442861823745
0.0436256976151
0.0425075567948
0.0414061588261
0.0407439994433
0.0400315237082
0.0397630104298
0.0405413158132
0.0430418644165
0.0472093786444
0.0472419190371
0.0465820278404
0.0455371467006
0.0443605851348
0.0432477462046
0.042258242488
0.0415808913106
0.0415422893242
0.0429007820715
0.0469070026828
0.0511495783752
0.0503838400855
0.0491417157243
0.047764322381
0.0465285512766
0.0453298682636
0.0444829721906
0.043985167261
0.0444116533074
0.0464602891858
0.0556496956671
0.0548065008069
0.053546093443
0.052111211198
0.0506016161567
0.0492241709253
0.0481277824444
0.0474474479444
0.0472742507155
0.0480530807136
0.0610874806267
0.0600677047686
0.0585018347523
0.0568307495536
0.0552719098807
0.0537175550182
0.0524859119412
0.051512635949
0.051011294418
0.0509997153622
0.0668361488159
0.0656932424411
0.0640429472444
0.0622527838052
0.0603885684005
0.0587205895268
0.0572983131699
0.0562241662359
0.0553711697593
0.0547572041817
0.0733949494339
0.0720556974606
0.0700347351672
0.0679661494531
0.0660340660904
0.0640533056414
0.0624243616839
0.0612255214978
0.0603952400889
0.0597138601875
0.0795799413995
0.0781786302267
0.0761185878357
0.0739241055532
0.0716711474053
0.0697639245544
0.0678579344641
0.0664005282974
0.0652836905802
0.0640732424281
0.086415907862
0.0848146298159
0.0823623660925
0.079893447058
0.0776504602148
0.0753297225606
0.0734667030086
0.0717888345177
0.0704641296744
0.0693937819148
0.0920220595584
0.0905550227372
0.0883266881092
0.0858204290438
0.0830790695522
0.0809665682638
0.078727680367
0.0769274151143
0.0753538499451
0.0735973658623
0.0979143915882
0.0961703155461
0.0936377784236
0.0910372261916
0.0886363786638
0.0858181513243
0.083937322375
0.0820182516416
0.0803456835733
0.0792426963309
0.101984139071
0.100984929949
0.0996744200855
0.0970688462871
0.092991275951
0.0908279101498
0.0880787503979
0.0865213462662
0.0847666736451
0.0827083070156
0.105287481265
0.104171634354
0.101653276758
0.0992340050527
0.0971926078088
0.0934817648844
0.0923356708875
0.0901681064441
0.0888534428512
0.0871279307338
0.104793370081
0.103856341273
0.102630891549
0.100450859872
0.0974614385778
0.0961479793007
0.092780276085
0.0917053012097
0.0889753708318
0.0876639553395
0.104563438307
0.103613186396
0.101879921757
0.0998838151507
0.0980090659719
0.0955590585509
0.093751498876
0.0912202958764
0.0891759425527
0.0881168143198
0.103282767133
0.10245556725
0.101027403788
0.0991991880419
0.0971413426031
0.095035471919
0.092945828322
0.0910367592502
0.089838279098
0.0889097281309
0.10098755972
0.100296743154
0.0991081589839
0.0974981903653
0.0956274261145
0.0936996407957
0.0917736537745
0.0900082368304
0.088516752771
0.0876480571413
0.0976824820747
0.0971152964211
0.0961572953728
0.0947818512529
0.0931434869161
0.0914404812368
0.0897471463578
0.0882253335344
0.086967155065
0.0868491887163
0.0935038950354
0.0930470239514
0.0922954730096
0.0911485018698
0.0897582367078
0.0883233475559
0.0869467985719
0.0858141351858
0.0851875114244
0.0857564115909
0.088651445148
0.0882813225218
0.0877022555179
0.0867580175107
0.0856060244656
0.084444705204
0.083403964672
0.0827524666664
0.0829879314158
0.0845061922928
0.0833137026516
0.0830095688497
0.0825580222412
0.081773466306
0.080825966227
0.0799362022947
0.0792653885177
0.0793280824283
0.0804640434522
0.0827751614417
0.0776888423554
0.077422245497
0.077044020203
0.0763513882625
0.0755286436354
0.0748178047151
0.0746765749067
0.0755054995593
0.0774173828488
0.0804625111677
0.0719539730589
0.0716990117376
0.0713297946757
0.0706325334204
0.0697841970145
0.0692417189442
0.0696034317448
0.071158974952
0.0737853390185
0.0775443915233
0.0662923455279
0.0660233630463
0.0656017054617
0.0647833168313
0.0638660345621
0.0634992764557
0.0642100861295
0.0663183689535
0.0696721039066
0.0740551245549
0.0608760265219
0.060592116489
0.0601157345853
0.0591924805777
0.0583162444065
0.0581003019996
0.0590233469275
0.0614311822065
0.0652240452802
0.0700605685956
0.05582255367
0.0555326626354
0.0550326593044
0.0540842301913
0.0532741899864
0.0531640480668
0.054187240431
0.0566956955962
0.0606137108232
0.0656814187643
0.0511691380936
0.0508834273732
0.0503843421106
0.0494588568594
0.0487164693465
0.0486702403144
0.0497126512625
0.0521881948125
0.0560416847726
0.0610942267994
0.0469092443858
0.0466316016045
0.0461456942517
0.0452620541623
0.0445795447031
0.0445652927349
0.0455734053472
0.0479295305328
0.051591121811
0.056429181621
0.0430139403315
0.042746573501
0.042276878113
0.0414363858441
0.0408041304878
0.0408002846768
0.0417420475632
0.0439281606491
0.0473216436672
0.0518230343189
0.0394532288778
0.0391950670203
0.0387403231851
0.0379375128123
0.0373464305074
0.0373405025333
0.0382004444176
0.0401931661055
0.043281700555
0.0473793721805
0.036193915446
0.0359449452543
0.035503078484
0.0347310772742
0.0341756676168
0.0341627364784
0.0349380113922
0.0367360842205
0.0395192724258
0.0432128641828
0.0332121342861
0.032970878826
0.0325397177811
0.0317936655773
0.031270624889
0.0312508819018
0.0319465292764
0.0335615837192
0.0360577991273
0.0393708978312
0.0304596127127
0.0302359241135
0.0298198708144
0.0291014462099
0.0286128027025
0.0285903611089
0.0292155833376
0.0306652425072
0.0329002033559
0.035865072777
0.0279591126571
0.027734021569
0.0273194809601
0.0266385384987
0.0261881097327
0.026168141384
0.0267330400543
0.0280359897068
0.0300369657104
0.0326878796792
0.0255947948571
0.0254185719562
0.0250140171711
0.0243888054988
0.0239829144136
0.0239705109697
0.0244845078149
0.0256584959908
0.0274515191587
0.0298216385857
0.0235164326051
0.0233333943868
0.0229269767855
0.0223512393192
0.0219872610702
0.0219845187187
0.0224555705442
0.0235151388458
0.0251236972429
0.027243625897
0.0215576891508
0.0214245890829
0.0210327351427
0.0205099942642
0.0201886414737
0.0201975940458
0.020631571705
0.0215886139897
0.02303265353
0.024929668513
0.0198555815167
0.0197191194385
0.019326997751
0.0188410002901
0.0185403771349
0.0185615017486
0.0189821195724
0.0198560589844
0.0211554177864
0.0228545626944
0.0182620263127
0.0181663071762
0.0177874227198
0.0173432624673
0.0170752601869
0.0171084537523
0.017504439469
0.0183000279859
0.0194719350947
0.0209956820818
0.0168790127478
0.0167855425584
0.016413197771
0.0160068578124
0.0157716535403
0.0158140392409
0.0161836941076
0.0169070299207
0.017964936418
0.0193328516113
0.0155836156252
0.0155305938102
0.0151768285858
0.0148108484799
0.0146080671508
0.0146584905037
0.0150031066655
0.0156609166868
0.0166167484979
0.0178461233394
0.0144562469222
0.0144107515175
0.0140706751327
0.013740891729
0.0135675358846
0.0136248636364
0.0139463488481
0.0145451173508
0.0154095809783
0.0165156602306
0.0133980238352
0.0133855774256
0.013070319445
0.0127790222656
0.0126342707815
0.0126979775989
0.012998352943
0.013544045305
0.0143266303511
0.0153228126198
0.0124639674988
0.012453792658
0.0121682421041
0.0119142655757
0.0117959221271
0.0118651508518
0.0121460601055
0.0126438732315
0.0133529209196
0.0142509424423
0.0115843737827
0.0115921879818
0.0113497999133
0.0111347808281
0.011041467158
0.0111153293314
0.0113780646876
0.011832507269
0.0124752631648
0.0132853543278
0.0108159787568
0.0108185247471
0.0106146265474
0.0104339518347
0.0103622403154
0.0104392932872
0.0106846972134
0.0110995404614
0.0116822801229
0.0124133265903
0.0101053035694
0.0101198554119
0.00995147773256
0.009802537586
0.00974985790053
0.00982876921425
0.0100574926594
0.0104360077795
0.0109642007006
0.0116239709013
0.00949027204892
0.00949827260544
0.00935521880084
0.00923426572317
0.00919739693556
0.00927671549822
0.0094892045823
0.00983416454606
0.010312577547
0.0109078268042
0.00892524183034
0.00894022103816
0.00881843757245
0.00872164289917
0.00869818169632
0.00877674695549
0.00897344411306
0.00928731080124
0.00972013732406
0.0102568001314
0.00844079905629
0.00844819090025
0.00834054453989
0.0082588738078
0.00824676301496
0.00832354294562
0.00850478290826
0.00878969101143
0.00918061719535
0.0096638920982
0.00800025787748
0.00801143023789
0.00791606777877
0.00784511031828
0.0078383327791
0.00791252635085
0.00807836124902
0.00833634788354
0.0086886226919
0.0091231072584
0.00762680098913
0.007630805327
0.00754369658764
0.00747930491828
0.00747313700057
0.0075400183862
0.00769004697774
0.00792299270125
0.00823933712625
0.00862913844644
0.0072899313726
0.00729629805196
0.00721717604777
0.00715800979512
0.00715059819777
0.00720805610486
0.00733944008567
0.00754568644567
0.00782812069861
0.00817713164686
0.00700651631458
0.00700695628313
0.00693351142944
0.00687785187133
0.00686807968829
0.00691556638293
0.00702803160133
0.00720731944323
0.00745475295194
0.00776278255625
0.00675158532034
0.00675384659523
0.0066863629338
0.00663400664475
0.0066217997135
0.0066596216285
0.00675398364048
0.00690735202896
0.00712064564868
0.00738767997545
0.00653779865854
0.00653547726503
0.00647244146374
0.00642256600724
0.00640784014529
0.00643665457461
0.0065142452876
0.00664344684657
0.00682454829061
0.00705209878255
0.00634526612594
0.00634450083109
0.0062862365651
0.00623887770582
0.00622194988499
0.00624263676872
0.00630514271673
0.00641242479399
0.00656401817942
0.00675478579739
0.00618382376559
0.00617959858307
0.0061249876743
0.00607967199342
0.00606078574664
0.00607426235323
0.00612326695862
0.00621087755221
0.0063359739203
0.00649342428411
0.00603794748332
0.00603508775193
0.00598441024454
0.0059412688651
0.00592101363185
0.00592823145109
0.00596507885602
0.00603527285031
0.00613692925606
0.00626476575537
0.00591540311031
0.00590993734968
0.00586226584251
0.00582081475691
0.00579905753776
0.00580075385706
0.00582761188784
0.00588233252928
0.00596345644011
0.00606522836563
0.00580416631487
0.00579987122763
0.0057553940489
0.0057156731567
0.00569270240999
0.00568967119599
0.00570789317866
0.00574908784322
0.00581245260153
0.00589191348772
0.00571047290723
0.00570421004416
0.00566220529055
0.00562389129394
0.00559979790564
0.00559261733794
0.00560330345186
0.00563285309348
0.00568081553374
0.00574098463287
0.00562502159775
0.00561975484842
0.00558036172606
0.00554348833851
0.0055185427658
0.00550787786945
0.00551210486816
0.00553154404668
0.00556598397925
0.00560971174479
0.00555284575271
0.00554608258206
0.00550871936949
0.00547301880989
0.00544724703592
0.00543340999022
0.00543185664231
0.00544276697417
0.00546536634563
0.00549499170866
0.00548675636969
0.00548082870047
0.00544558445147
0.00541104852092
0.00538460194108
0.00536795916689
0.00536137941972
0.00536486872565
0.00537715660911
0.00539423170146
0.00543088003077
0.00542379791892
0.0053902028549
0.00535661828374
0.00532952305664
0.00531038018295
0.00529932498193
0.00529627628721
0.00530005249611
0.00530652963562
0.00537964214318
0.00537325137333
0.00534136574409
0.00530871286809
0.00528107904012
0.00525969856477
0.00524463289923
0.00523572591235
0.00523178055793
0.00522897362203
0.00533635625294
0.0053290599167
0.00529850669982
0.00526661902334
0.00523846719665
0.00521509520461
0.0051964630111
0.00518234032752
0.00517155226017
0.00516054700692
0.00529653769931
0.00528981961689
0.00526064977676
0.00522951373115
0.00520094173065
0.00517580196198
0.00515400763565
0.00513528002545
0.00511846399054
0.00510027357643
0.00526283160811
0.00525541054857
0.00522732598117
0.00519681798943
0.00516784984306
0.0051411514334
0.00511656624149
0.00509377234379
0.00507165741032
0.00504718367295
0.00523172321884
0.00522477942094
0.00519781809635
0.00516792399689
0.00513864064594
0.00511056368331
0.00508351183502
0.00505713926725
0.00503036899177
0.00500040308646
0.00520538352173
0.00519789126758
0.00517181148509
0.0051424332631
0.00511285078657
0.00508355992918
0.00505433201479
0.00502479857453
0.00499393490729
0.00495916358536
0.00518102046439
0.00517392064854
0.00514875010049
0.00511987138805
0.00509005259022
0.00505968605913
0.00502853260514
0.0049962152135
0.00496175120433
0.00492277389007
0.00516030517848
0.0051527798917
0.00512832721288
0.00509987441016
0.00506983242265
0.00503852192086
0.00500567160306
0.00497089495361
0.00493326441178
0.00489060524224
0.005141000048
0.00513379834513
0.00511008563759
0.00508204382152
0.00505183021208
0.00501968492262
0.00498533525259
0.00494839566936
0.00490798218521
0.00486210211976
0.00512450698556
0.00511697797662
0.00509384895244
0.00506615739612
0.00503577692482
0.00500289724806
0.00496722436766
0.00492837152872
0.00488550850424
0.0048368068531
0.00510921538672
0.00510194350619
0.00507940375201
0.00505203498541
0.00502151547354
0.00498797304453
0.00495111849824
0.00491057187952
0.00486554467605
0.00481436305104
0.00509631362437
0.00508877826899
0.00506669556518
0.00503959294189
0.00500892546701
0.00497478720022
0.00493687543723
0.00489481404205
0.00484786430673
0.00479449070497
0.00508448584369
0.00507715539076
0.00505553569962
0.00502867534581
0.00499788179687
0.00496320080039
0.00492433735359
0.00488092466507
0.00483226174349
0.00477694261561
0.00507457427698
0.00506703745674
0.00504578287859
0.00501912754193
0.0049882078647
0.00495304429534
0.00491333151444
0.00486870787571
0.0048185162254
0.00476146552557
0.00506540475868
0.00505803351478
0.00503715339511
0.00501068647974
0.00497966654442
0.00494407095167
0.00490360121413
0.00485790417793
0.00480635449734
0.0047477681442
0.00505745991026
0.00504992852517
0.00502934028293
0.00500304650998
0.00497193592042
0.00493596975947
0.00489484092192
0.00484820002588
0.00479545823965
0.00473552583197
0.00504977175235
0.00504237454838
0.00502208842784
0.00499595940116
0.00496478475562
0.00492849507381
0.00488679112662
0.00483933162769
0.00478555439936
0.00472445799367
0.00504297671138
0.00503545761985
0.0050154142736
0.00498943392452
0.00495819473503
0.00492161882175
0.00487940426851
0.0048312184855
0.0047765335737
0.00471442683244
0.00503663563053
0.0050292224616
0.00500941948138
0.00498356513874
0.00495226648108
0.00491542223685
0.004872742543
0.00482390811534
0.00476841771024
0.00470542224552
0.0050312786335
0.00502376375186
0.00500414209546
0.00497839202524
0.00494702765341
0.00490994448123
0.00486685193509
0.00481743932726
0.00476123459049
0.00469745209847
0.00502644544683
0.00501900826567
0.00499956489171
0.00497390096037
0.00494247880659
0.00490517671606
0.00486171438069
0.00481179077008
0.00475495332596
0.00469047406437
0.00502241787244
0.00501489912683
0.00499559565566
0.00497001106713
0.00493853454953
0.0049010441029
0.00485725869412
0.00480688353008
0.00474948853172
0.00468439471559
0.0050187212804
0.00501126824704
0.00499211435848
0.0049666075368
0.00493509615815
0.00489744320171
0.00485337574564
0.004802606537
0.00474472048774
0.00467908419157
0.0050155888791
0.00500807868143
0.00498904896507
0.00496361994753
0.00493207883727
0.00489428755632
0.00484997119418
0.00479884738183
0.00474052003929
0.00467439643939
0.00501271424435
0.00500525803628
0.00498635065446
0.00496098603005
0.00492941849023
0.00489149578554
0.00484694866209
0.00479550084321
0.00473676941565
0.00467020123579
0.00501027095259
0.00500276721708
0.00498395274929
0.0049586432962
0.0049270445001
0.00488900327683
0.00484424705
0.00479250263357
0.00473340304258
0.00466642977328
0.00500801945006
0.00500055534041
0.00498183267731
0.00495656906965
0.00492494598395
0.00488679827928
0.00484185667118
0.00478985106055
0.00473042300528
0.00466308451059
0.0050061059744
0.00499860770806
0.00497996560083
0.00495475477686
0.00492311615202
0.00488488437274
0.0048397866751
0.00478755338847
0.00472783543606
0.00466016791804
0.0050042894285
0.00499683163294
0.00497828017009
0.00495312515774
0.00492148606115
0.00488318573698
0.00483795381424
0.00478552189862
0.00472554491452
0.00465757879799
0.00500266657087
0.00499518606154
0.00497670473925
0.0049515968248
0.00491994777455
0.00488157865728
0.00483621472829
0.00478358793806
0.00472336286266
0.00465511863382
0.00500120021547
0.00499374039724
0.00497530732333
0.00495020892422
0.00491851484311
0.00488003750347
0.00483450719551
0.00478166282986
0.00472118156478
0.00465267228627
0.00500014695421
0.00499264710226
0.00497422869339
0.00494910799446
0.00491732464731
0.00487869578594
0.00483295916919
0.00477986732287
0.00471911814156
0.00465034820879
0.00499952792024
0.00499197132172
0.00497354774163
0.00494838116542
0.00491648237991
0.00487766741239
0.00483169719627
0.00477834467096
0.0047173237853
0.00464829343108
0.00499912398051
0.00499148618034
0.00497306969544
0.0049478566211
0.00491581068601
0.00487679145014
0.00483060120339
0.00477701822691
0.00471576127347
0.00464650209244
0.00499800618602
0.00499043697348
0.00497205279916
0.00494683712014
0.00491475594983
0.00487567925838
0.00482940869521
0.00477571311654
0.00471431433289
0.00464490186129
0.00499637354024
0.00498884584553
0.00497050863878
0.00494535787451
0.00491337764973
0.0048743864298
0.00482814102263
0.0047744172844
0.0047129523152
0.00464345736628
0.00499514408911
0.00498764013543
0.00496934445433
0.00494422459267
0.00491226517648
0.00487327669661
0.00482701281043
0.00477324979474
0.00471172980867
0.0046421780096
0.0049943887075
0.00498687515496
0.00496860211604
0.0049434894933
0.00491150531698
0.00487246313366
0.00482613076822
0.00477229096935
0.00471069233066
0.00464106693067
0.00499425031301
0.0049867571957
0.00496851714538
0.00494339051973
0.00491131737991
0.00487206079605
0.00482555648341
0.00477157487095
0.00470984954234
0.00464010811711
0.00499430802509
0.00498680569504
0.0049685786103
0.00494343675263
0.00491128824433
0.00487185284906
0.00482515595252
0.00477101423215
0.0047091444666
0.00463926657123
0.00499379363141
0.00498622680744
0.0049679691641
0.00494282085816
0.00491070031696
0.00487136208275
0.00482465096995
0.00477045452754
0.00470849635749
0.00463852268038
0.00499293136712
0.00498530673239
0.00496703388646
0.00494189679866
0.00490982097178
0.00487060215508
0.00482400857542
0.00476984227092
0.00470788235943
0.00463791042311
0.00499213535683
0.00498456629165
0.00496633967339
0.00494123947934
0.00490919259768
0.00487000228445
0.00482343598946
0.00476930552882
0.00470739629654
0.00463750330597
0.00499162778363
0.00498412817571
0.00496599366361
0.00494102998902
0.00490903296839
0.00486982387886
0.00482315727841
0.00476898935417
0.00470708258197
0.00463721747667
0.00499147798273
0.00498396203559
0.00496588822348
0.00494103316598
0.00490905292958
0.00486981006042
0.00482305033547
0.00476880788471
0.00470679741508
0.00463677370285
0.0049913799725
0.00498382555392
0.00496569682527
0.00494070611495
0.00490864426332
0.00486937443106
0.00482265924952
0.00476834779647
0.00470620362827
0.00463598516725
0.00499098443396
0.00498340051962
0.00496518837747
0.0049400487088
0.00490792259798
0.00486862575663
0.00482192044307
0.00476757310289
0.00470537761142
0.00463511916319
0.00499035578939
0.00498275410742
0.00496454126075
0.00493941612315
0.00490730148232
0.00486800571916
0.00482129076985
0.00476694275391
0.00470473682355
0.00463446144935
0.00498992730729
0.00498237479661
0.00496417710568
0.00493905134055
0.00490692539506
0.00486761176778
0.00482087988125
0.00476651753954
0.00470429597028
0.00463400093084
0.00498988141647
0.00498234890289
0.00496416175262
0.00493901440702
0.00490680716936
0.00486741891957
0.00482063389977
0.00476623233691
0.00470397677337
0.0046336437466
0.00498991851294
0.00498238725091
0.00496420224122
0.00493903711182
0.00490677584993
0.00486729589904
0.00482044584284
0.00476598877345
0.00470367523425
0.00463328058005
0.00498963204829
0.00498206957312
0.00496388912753
0.0049387575023
0.00490657174266
0.00486713230617
0.00482032934418
0.00476586393212
0.00470348593527
0.00463298869995
0.00498932577524
0.00498174380528
0.00496360448616
0.00493856439091
0.00490646193461
0.00486712112296
0.00482033546314
0.00476588749843
0.00470346637099
0.00463294029029
0.0049891894117
0.00498163215911
0.00496354252015
0.00493855152408
0.00490646449471
0.00486711904606
0.00482027524985
0.0047658104415
0.00470339049367
0.00463290515121
0.00498897843205
0.00498140997952
0.00496328566817
0.00493821403539
0.00490609027605
0.00486672693722
0.00481989244136
0.00476537558762
0.00470295900785
0.00463243351494
0.00498867917192
0.00498108404309
0.00496290294486
0.00493777828102
0.00490561923314
0.0048662302732
0.00481937462965
0.00476483564468
0.00470238736637
0.0046318314794
0.00498846994742
0.00498090222839
0.0049627449519
0.00493761222834
0.00490541856423
0.00486601470905
0.00481916446845
0.00476465741351
0.00470219314737
0.00463157165932
0.00498844153738
0.00498090713081
0.00496275674968
0.00493762152097
0.00490541000476
0.00486597162608
0.00481912149752
0.00476465223435
0.00470217747562
0.00463150058391
0.00498846596702
0.0049809260034
0.0049627488593
0.00493761507039
0.00490542364578
0.00486596099347
0.00481907320415
0.00476454099278
0.00470205681067
0.00463142704117
0.00498828316879
0.00498072325726
0.00496254702719
0.00493740892101
0.00490521883407
0.00486577772296
0.00481885691953
0.00476425390642
0.00470175783682
0.00463117317537
0.00498805708369
0.00498048077958
0.00496230594874
0.00493718460943
0.00490499746555
0.00486555023547
0.00481860349067
0.00476398288591
0.00470146778043
0.00463086807778
0.00498801695256
0.00498046619236
0.00496230533644
0.00493719436413
0.00490500578475
0.00486555615409
0.00481860045198
0.00476397105693
0.00470143730178
0.00463079912262
0.00498804644567
0.00498050817896
0.00496234518924
0.00493720878392
0.00490501414369
0.00486556496594
0.00481862777119
0.00476399056823
0.00470143772065
0.00463076480395
0.00498794799966
0.00498038877837
0.00496220758425
0.00493705500583
0.00490484379998
0.0048653755431
0.00481841913857
0.00476376222417
0.00470119452161
0.00463052626849
0.00498779383111
0.0049802096466
0.00496201244325
0.00493684451729
0.00490461822454