/*--------------------------------*- C++ -*----------------------------------*\
| =========                 |                                                 |
| \\      /  F ield         | OpenFOAM: The Open Source CFD Toolbox           |
|  \\    /   O peration     | Version:  v2012                                 |
|   \\  /    A nd           | Website:  www.openfoam.com                      |
|    \\/     M anipulation  |                                                 |
\*---------------------------------------------------------------------------*/
FoamFile
{
    version     2.0;
    format      ascii;
    class       volVectorField;
    location    "50";
    object      U;
}
// * * * * * * * * * * * * * * * * * * * * * * * * * * * * * * * * * * * * * //

dimensions      [0 1 -1 0 0 0 0];


internalField   nonuniform List<vector> 
15000
(
(10.0001949416 -0.00010515782552 3.62319710842e-16)
(10.0002196473 -0.000266008096713 6.72688369499e-17)
(10.0002827242 -0.000490433633136 2.27190281314e-17)
(10.0004055686 -0.000839103072871 1.15754350581e-17)
(10.0006417489 -0.00142122892783 6.92764644874e-18)
(10.0010768265 -0.00244026066612 4.66772684062e-18)
(10.0018938707 -0.00391683235987 3.42837696915e-18)
(10.0033251718 -0.0095518051049 2.91100024455e-18)
(10.0009334984 -0.00817109522502 2.0477742908e-18)
(9.76892359482 0.0483302971706 1.51661969946e-18)
(10.0010445633 -0.000200739850122 8.95752922095e-16)
(10.0011534023 -0.000502626715942 2.14752680501e-16)
(10.0014280037 -0.000853322194124 7.03348453806e-17)
(10.0019383595 -0.00128188032596 3.4894513948e-17)
(10.0028513614 -0.00183995477896 2.09735920063e-17)
(10.0044452758 -0.00233214650233 1.4111060131e-17)
(10.0070524408 -0.0023186224826 9.73999788367e-18)
(10.0119326244 -0.00395690565255 5.31723473058e-18)
(9.99068295566 -0.0118174047765 5.66142244835e-18)
(9.5400677745 0.0833032132755 4.19943851924e-18)
(10.0023175152 -0.000143727789868 1.23597274275e-15)
(10.0024900085 -0.000343634852539 3.79789848608e-16)
(10.002890877 -0.000543222195657 1.21415348099e-16)
(10.0035875065 -0.000680710957187 5.89747318641e-17)
(10.0047137094 -0.000831788323476 3.51919588897e-17)
(10.0065943317 -0.00116661171954 2.36818797978e-17)
(10.0095757632 -0.00054423818235 1.71127601963e-17)
(10.0082916276 0.00167153274764 2.02011877783e-17)
(9.95761703042 -0.0120894957035 9.93697706423e-18)
(9.32536341179 0.0842579814848 6.94621356464e-18)
(10.0031654546 -4.78329925196e-05 1.60522748548e-15)
(10.0032468545 -0.000172791518206 4.9176263199e-16)
(10.0035989196 -0.000212983700426 1.74198430259e-16)
(10.0041966716 -0.000327553481815 8.27730825442e-17)
(10.0051183622 -0.000196404911807 4.96405975755e-17)
(10.0066763334 -0.000651534357978 3.28321581886e-17)
(10.0086553054 -0.00100283539671 2.28328143149e-17)
(10.0019608053 0.00500847268429 -1.58410082687e-17)
(9.91600411153 -0.0106997041184 1.27782389273e-17)
(9.13242303073 0.0847080381398 1.19460688037e-17)
(10.0033164391 -4.2378677189e-05 1.8310399334e-15)
(10.0034597617 -0.000144391788603 6.14704321764e-16)
(10.0037648747 -0.000232917375725 2.28677445494e-16)
(10.0042921623 -0.000387382364515 1.07915919928e-16)
(10.0051184159 -0.000352823105123 6.35832251297e-17)
(10.00645711 -0.000470115832103 4.23460364257e-17)
(10.0076864604 -0.0020094509602 2.77958630427e-17)
(9.99547370302 0.00586081401358 -4.38264108817e-19)
(9.87020554181 -0.00856811634193 1.55590744971e-17)
(8.95805349995 0.0826863925906 1.23856580789e-17)
(10.0035234458 -4.31161173665e-05 1.88803614032e-15)
(10.003693628 -0.000133548270619 7.73955197904e-16)
(10.0040197416 -0.000235019239762 2.84991634195e-16)
(10.004589455 -0.000402648632997 1.34176066229e-16)
(10.0054859693 -0.000477361357913 7.83934364117e-17)
(10.0067423294 -0.000266885581295 5.15394031443e-17)
(10.007125304 -0.00254526597726 3.44705674153e-17)
(9.98784706726 0.00626080339535 4.38159685013e-17)
(9.82051803748 -0.00562593272774 1.93975199044e-17)
(8.80412891328 0.079547012192 1.61720343466e-17)
(10.0038153356 -1.65009355372e-05 1.93521650665e-15)
(10.0040261645 -6.23455006072e-05 9.20421549475e-16)
(10.0043937064 -0.000115418709625 3.43093100477e-16)
(10.0050300147 -0.000243990264929 1.60891530896e-16)
(10.0060431957 -0.000412930614625 9.33907678478e-17)
(10.0073614718 3.11574552356e-05 6.10500946381e-17)
(10.0062956428 -0.00258355137741 4.18693689398e-17)
(9.97830201183 0.00655391424886 5.53538641977e-17)
(9.76711281523 -0.00186787870288 2.44601224479e-17)
(8.66274607644 0.0767436011759 2.33721590271e-17)
(10.0039188287 2.71416075821e-05 1.98213804199e-15)
(10.0041854119 5.10220088625e-05 1.05264729787e-15)
(10.0045881256 9.07304109358e-05 4.02364782004e-16)
(10.0052725702 8.40908172994e-05 1.8816643389e-16)
(10.006378058 -0.00015978331258 1.08471512025e-16)
(10.0073920785 0.00062619320418 7.08161019522e-17)
(10.0047426277 -0.00209971788563 5.00006270769e-17)
(9.96641538493 0.00722446243091 6.24720811027e-17)
(9.7109518418 0.00219138831397 2.9938757323e-17)
(8.53813456536 0.0764893735921 2.44673310812e-17)
(10.0036164356 8.55815451489e-05 2.02789405813e-15)
(10.0039506336 0.000195507746486 1.17219747987e-15)
(10.0043886143 0.000349341501011 4.62310160193e-16)
(10.0050955344 0.000548687575454 2.16123411629e-16)
(10.0062294606 0.000362645650243 1.23848367497e-16)
(10.0069328391 0.00150247134025 8.07818377955e-17)
(10.0020699687 -0.00113223375854 5.83962641137e-17)
(9.95168985022 0.00847546967467 6.79886302726e-17)
(9.65169357201 0.00616546276826 3.69118348105e-17)
(8.42153854663 0.0781628755076 3.29850968108e-17)
(10.0027759109 0.000164883358242 2.07234512087e-15)
(10.0031783778 0.000378447784544 1.28070912582e-15)
(10.0036608141 0.000630486973756 5.22032720238e-16)
(10.0043745151 0.00104893864282 2.44505228632e-16)
(10.0054557771 0.00101419070748 1.39409461129e-16)
(10.0057476777 0.00252691681559 9.10894587608e-17)
(9.99801370477 0.000184676055944 6.74422941814e-17)
(9.93395566884 0.0104323093575 7.32143222131e-17)
(9.5903906005 0.010398448058 4.38175884799e-17)
(8.3153362972 0.0790767761785 4.13532346918e-17)
(10.0012382271 0.000272492594057 2.11327915185e-15)
(10.0017034361 0.000622645747795 1.37981206362e-15)
(10.0022582117 0.000948005848545 5.81372708255e-16)
(10.003020422 0.00152374931682 2.73618268167e-16)
(10.0040351904 0.00162317889381 1.55398352004e-16)
(10.0037346884 0.00351511420707 1.01610131931e-16)
(9.99258088819 0.00167162418745 7.60947959499e-17)
(9.913278832 0.0122880776275 7.67757403079e-17)
(9.52686572177 0.0149183622391 4.94762013278e-17)
(8.21760275754 0.0793688425443 4.36342828771e-17)
(9.99880708341 0.000434922699523 2.14687730052e-15)
(9.99934370144 0.000999417924665 1.47239920049e-15)
(10.0000121417 0.00144258539294 6.40048820227e-16)
(10.0009125743 0.00212899080141 3.03626655574e-16)
(10.0019399371 0.00232679878866 1.71820700002e-16)
(10.0008954418 0.00444672484962 1.12251968523e-16)
(9.98584450992 0.00321583490204 8.59622081867e-17)
(9.88999086896 0.0140596721161 8.94137329226e-17)
(9.46174912499 0.0194442869372 5.69387098357e-17)
(8.12617201407 0.0798462830442 4.79377132674e-17)
(9.99533912317 0.000681438577778 2.18199584038e-15)
(9.99597949857 0.00158127804776 1.55867808523e-15)
(9.99677118769 0.00227324099429 6.98488331626e-16)
(9.99785990573 0.00313495392703 3.33566431316e-16)
(9.99896501699 0.00329303774365 1.88407311018e-16)
(9.99706604919 0.00550056715153 1.22667032049e-16)
(9.97757092643 0.00479543061865 9.06708869252e-17)
(9.86404878176 0.015862527742 4.84775619928e-17)
(9.395705586 0.0241299468293 5.87764205238e-17)
(8.04092301609 0.0805688647625 5.1352226566e-17)
(9.99081512329 0.000994719712543 2.22048035391e-15)
(9.99159934216 0.00233186052066 1.63732287557e-15)
(9.9924396581 0.0034297816685 7.54794367724e-16)
(9.99362004713 0.00463257875771 3.63839297694e-16)
(9.99472053207 0.00484904149339 2.0581119865e-16)
(9.99186351807 0.00698885811403 1.33520242095e-16)
(9.96724911257 0.00665464999412 1.05011888229e-16)
(9.83519630527 0.0179560739622 2.32133331803e-16)
(9.32780283028 0.0295302908418 7.41898585691e-17)
(7.96100036105 0.0820509623209 5.35529360084e-17)
(9.98531990548 0.00125844958892 2.25612892051e-15)
(9.98629362882 0.00300952993197 1.7071926915e-15)
(9.98704087404 0.00457379350372 8.09793432322e-16)
(9.98807657737 0.00630547512387 3.9329178537e-16)
(9.98891749903 0.00688041724604 2.22013087577e-16)
(9.98499378913 0.00910254481516 1.45100311527e-16)
(9.95435871526 0.00914172071542 1.21825775162e-16)
(9.80302106813 0.0208674978012 1.37446064865e-16)
(9.25902527411 0.0354501245182 8.57531059163e-17)
(7.88656290436 0.0842697130328 5.83874516794e-17)
(9.97906879693 0.00131875648401 2.33876006458e-15)
(9.98026995379 0.00331197813434 1.74859179052e-15)
(9.98081639788 0.0052286501746 8.62535908901e-16)
(9.98147669505 0.00757548426338 4.23930989889e-16)
(9.98173748279 0.00887300977936 2.3866482339e-16)
(9.97643525934 0.011641444612 1.5605491381e-16)
(9.93874454684 0.0125931896345 1.2331255988e-16)
(9.76711601279 0.0246604677154 -7.29711671245e-18)
(9.1886958427 0.0418730759416 8.4558503921e-17)
(7.81541196831 0.0874532265731 6.31228963201e-17)
(9.97226307222 0.00117628081311 2.33464911375e-15)
(9.97375788555 0.00308007372246 1.81633858245e-15)
(9.97413861799 0.00510714170008 9.13842516597e-16)
(9.97435749328 0.00794778437606 4.55851828433e-16)
(9.97380316553 0.0100893590137 2.54693365695e-16)
(9.96637423837 0.0138143882872 1.66793763129e-16)
(9.92072064042 0.016275696279 1.28619156588e-16)
(9.72790311779 0.0282912806108 9.056685625e-17)
(9.11771717702 0.0478365140101 8.59034704625e-17)
(7.74640208112 0.0903461413101 6.55227751344e-17)
(9.96497825413 0.000908311553939 2.3418124772e-15)
(9.96679086794 0.00250703175755 1.87683539707e-15)
(9.96717907349 0.00436196863504 9.64595440661e-16)
(9.96708841054 0.00736191752852 4.87749242744e-16)
(9.96560466933 0.0100702028139 2.71626147187e-16)
(9.954931014 0.0146640951409 1.78063469103e-16)
(9.90074270741 0.018422039801 1.32269755363e-16)
(9.68555636092 0.0306679198045 8.70811276869e-17)
(9.04455303344 0.0522027431216 8.39563359695e-17)
(7.67595546062 0.0928113018403 6.77422480878e-17)
(9.95714793926 0.000713938435682 2.34028781721e-15)
(9.95916489714 0.00197485578 1.9389875773e-15)
(9.95974641312 0.00345197815633 1.01289588481e-15)
(9.95955858223 0.00611796308503 5.18186181708e-16)
(9.95715216108 0.00876825936786 2.89522879005e-16)
(9.94303958706 0.0134752362492 1.90439477293e-16)
(9.87942822397 0.0179118521335 1.46384252409e-16)
(9.64103216197 0.0308430774242 2.80346876871e-16)
(8.97042649908 0.0541275269057 1.01033279445e-16)
(7.60466846836 0.094546695428 7.24555825065e-17)
(9.94875724058 0.000744908117084 2.55536058638e-15)
(9.95088404019 0.00188994035986 1.91497159936e-15)
(9.95175021646 0.00285284760749 1.05878341015e-15)
(9.95162556725 0.00467376879429 5.48274734676e-16)
(9.94843883438 0.006531267577 3.07729516124e-16)
(9.93126466106 0.0105106221327 2.01300354082e-16)
(9.85736914057 0.0151605091177 1.62665265278e-16)
(9.59452604919 0.0291237786697 2.21869704577e-16)
(8.89528312986 0.0542409191812 1.1018967217e-16)
(7.52737046819 0.0944907883057 7.7480564043e-17)
(9.94079272461 0.00105576999658 2.52083746311e-15)
(9.94301613277 0.00229062430805 1.97751037005e-15)
(9.94406047785 0.00275493943787 1.10473026622e-15)
(9.94398020783 0.00348481862338 5.76649459433e-16)
(9.94019373154 0.00419774643212 3.2587547924e-16)
(9.92008989123 0.00702442352894 2.1263820777e-16)
(9.83529017802 0.0116960674837 1.64040104286e-16)
(9.54705386517 0.0269115666874 7.31004521301e-18)
(8.81746828861 0.0544219215323 1.06122410172e-16)
(7.44331914186 0.0961267992548 8.34360420378e-17)
(9.93552722282 0.00138580621932 2.50371787806e-15)
(9.93779940364 0.00278371426476 2.03638667419e-15)
(9.93871198803 0.00293208671443 1.14852655601e-15)
(9.93862134615 0.00282766413646 6.08227030367e-16)
(9.93386119843 0.00195399497498 3.4364674953e-16)
(9.91121763807 0.0036100307591 2.22193584889e-16)
(9.81473076202 0.00762929000635 1.63151555855e-16)
(9.50117288991 0.0227154357195 -1.89205243526e-17)
(8.74330039428 0.0519777358558 1.00172023002e-16)
(7.36295303166 0.0954215874052 8.49798874287e-17)
(9.93457954123 0.00144451990285 2.48562371046e-15)
(9.93719958044 0.00295413178748 2.09122040173e-15)
(9.93801935033 0.00306701442594 1.18870171207e-15)
(9.93761107633 0.00252807038784 6.38671852024e-16)
(9.93272895937 0.00162292551945 3.62474758576e-16)
(9.90650899751 0.00135618698907 2.33049677633e-16)
(9.79781176274 0.00424909489022 1.6383144802e-16)
(9.45866175277 0.0178639866603 9.84052958931e-18)
(8.66463298417 0.0466953328692 9.97771657597e-17)
(7.26538334984 0.0901714812611 8.373422757e-17)
(9.93768879779 0.0011262690853 2.47128680756e-15)
(9.94080949934 0.00252476793527 2.14471759404e-15)
(9.94136771086 0.00281719314231 1.22761081727e-15)
(9.94057938123 0.0025992708012 6.66788281534e-16)
(9.93496837062 0.00142363817086 3.81293583359e-16)
(9.90442664783 0.000959880794948 2.44640656913e-16)
(9.78268024167 0.00353066657835 1.65422776121e-16)
(9.41441214086 0.0162848601775 3.58016739403e-17)
(8.58050121396 0.0445208550968 9.72768186891e-17)
(7.15899862912 0.0825947773463 8.06589575286e-17)
(9.94071124836 0.000410629250405 2.465654092e-15)
(9.94471425049 0.00134015779162 2.20051943005e-15)
(9.94552648541 0.00192973701339 1.26889175639e-15)
(9.94404388112 0.0026823940842 6.95058596009e-16)
(9.93581254309 0.00222824543738 3.97428673394e-16)
(9.89999772956 0.00221746320345 2.56066942718e-16)
(9.7628023801 0.00476331295002 1.67911885679e-16)
(9.36152115867 0.0177102125547 5.69766101256e-17)
(8.48379379623 0.0458960989282 9.38499545718e-17)
(7.06255669386 0.0796597738272 7.59167154507e-17)
(9.93750594763 -0.0005523908286 2.47468773572e-15)
(9.94244339101 -0.000506744441345 2.2525731168e-15)
(9.94209716829 7.87349152383e-05 1.30990489579e-15)
(9.94057916551 0.00121834368981 7.23354347364e-16)
(9.93044956036 0.00197334889127 4.16428185662e-16)
(9.88783789635 0.00303505379476 2.67926828966e-16)
(9.73202566111 0.0065424872781 1.74046771018e-16)
(9.29746806294 0.0213061350768 7.85621504315e-17)
(8.39107772437 0.0495514331178 9.36644071157e-17)
(6.98471632316 0.0842851395211 6.83337708908e-17)
(9.92462045514 -0.00145708283004 2.48894133346e-15)
(9.93117633516 -0.00248207386138 2.29604131307e-15)
(9.9326576599 -0.00233893418269 1.35255291839e-15)
(9.92990767291 -0.00109248590183 7.52357376056e-16)
(9.91635586483 0.000317621638156 4.35978073112e-16)
(9.86590680955 0.00267925677827 2.79224055956e-16)
(9.69072460848 0.00860644973832 1.82990628632e-16)
(9.22935457056 0.0260868230099 9.9677635378e-17)
(8.30305631544 0.0563001691153 9.76489973887e-17)
(6.91462411193 0.090572515675 6.16913675156e-17)
(9.90294426553 -0.00191738327495 2.49679559587e-15)
(9.91020611341 -0.00386643110865 2.33402714301e-15)
(9.9123199406 -0.00431187215389 1.39629879051e-15)
(9.90985346938 -0.00326810229065 7.79529214191e-16)
(9.89570880263 -0.00139005430782 4.55155866618e-16)
(9.83642069384 0.00259819411933 2.92403420451e-16)
(9.64310783946 0.0120365053842 1.93716036815e-16)
(9.15928682409 0.0328821632678 1.16506732759e-16)
(8.22071084058 0.0656508280429 1.02359052312e-16)
(6.85277827972 0.100367658422 5.39243358787e-17)
(9.87723917234 -0.00162535088493 2.5118549795e-15)
(9.88460944862 -0.00375165053758 2.36729661684e-15)
(9.88760739937 -0.004583597864 1.43923019734e-15)
(9.88574109522 -0.00380171508332 8.10442532283e-16)
(9.87040185987 -0.00111441794445 4.77566478389e-16)
(9.80413090309 0.005118838613 3.08204760323e-16)
(9.59414007452 0.0184647527131 2.05827818245e-16)
(9.09137730038 0.0431131250029 1.33681907669e-16)
(8.14563909902 0.0783692647046 1.04406496157e-16)
(6.79858286492 0.113194874929 3.89134880636e-17)
(9.85575102635 -0.000559301601383 2.52138782129e-15)
(9.86183137147 -0.0018136710755 2.40391441805e-15)
(9.86574741087 -0.00224081253056 1.48372427332e-15)
(9.86458654841 -0.00177131640275 8.43427750115e-16)
(9.84795455102 0.00271410608268 4.95544431167e-16)
(9.77465315222 0.0114729280254 3.2252415526e-16)
(9.54900492698 0.0283234724419 2.19877568856e-16)
(9.02940965271 0.0559423834923 1.48812964515e-16)
(8.07861089032 0.092287106962 1.08458178893e-16)
(6.74997793718 0.125395904819 2.70286477826e-17)
(9.84503960195 0.0010176765694 2.5335559917e-15)
(9.8491764623 0.00166098016444 2.43167001101e-15)
(9.85332628121 0.00263172596725 1.52959141828e-15)
(9.85240211169 0.00534386914424 8.7444303622e-16)
(9.83229376454 0.010253870986 5.14221270648e-16)
(9.7524178933 0.0203924106215 3.36294721739e-16)
(9.51126562813 0.0397713187024 2.31168411042e-16)
(8.97532035827 0.068264812098 1.60248284679e-16)
(8.01913453363 0.103161881915 1.0806680352e-16)
(6.7054011911 0.131876725738 1.25791349201e-17)
(9.85206275687 0.00251434527049 2.55138660002e-15)
(9.85304954719 0.00551824543142 2.46035579741e-15)
(9.85501918892 0.00859823121788 1.56520741684e-15)
(9.8526644847 0.0119717320352 9.09309900291e-16)
(9.82992316185 0.0185466905202 5.38264473208e-16)
(9.73915555818 0.0297263029947 3.48099124772e-16)
(9.48203998414 0.049147218905 2.41078472862e-16)
(8.92935966304 0.0760116760389 1.65700243169e-16)
(7.96630697917 0.106638654356 1.03094198727e-16)
(6.66363618712 0.129019350444 -4.65728022532e-18)
(9.87259640562 0.00336609073502 2.56118195932e-15)
(9.86892407425 0.00852184982869 2.4995844506e-15)
(9.86992805412 0.0136338934497 1.60107078976e-15)
(9.86487676611 0.0183280794135 9.46486346325e-16)
(9.83765880104 0.0250063588305 5.61539920318e-16)
(9.73385347532 0.0356374366935 3.61182881915e-16)
(9.46020759104 0.0525356714698 2.48315820119e-16)
(8.8901093057 0.0751798402602 1.7235965822e-16)
(7.91893332452 0.0993594814665 9.92781102274e-17)
(6.62437628114 0.114264562107 -2.61350821859e-17)
(9.90430271491 0.00313381344461 2.58510756579e-15)
(9.89645209751 0.00931197528632 2.53840319695e-15)
(9.89412548053 0.015567599261 1.63857310382e-15)
(9.88536433485 0.020655944548 9.77214095593e-16)
(9.85146524398 0.0263945787674 5.85542609072e-16)
(9.73424257711 0.0346599776916 3.74032446986e-16)
(9.44340831003 0.0472599607272 2.52228669786e-16)
(8.85548773143 0.0638171216202 1.73292580733e-16)
(7.87421919389 0.0803161170597 8.91420552523e-17)
(6.58505395226 0.0876570793686 -5.14509523761e-17)
(9.94069608143 0.00168159471283 2.57750665972e-15)
(9.92769287956 0.00722798972836 2.58682200322e-15)
(9.92191748783 0.013111888847 1.6752644053e-15)
(9.90872920168 0.017246351866 1.00829280239e-15)
(9.86581135931 0.0208311651665 6.07337388552e-16)
(9.73636229708 0.0256564155046 3.88777278308e-16)
(9.4289342112 0.0328197132972 2.60335704651e-16)
(8.82381098689 0.042395278036 1.71797744284e-16)
(7.83264745518 0.0515757737643 7.67717955028e-17)
(6.54825308893 0.0528800116648 -7.1658963631e-17)
(9.97594544079 -0.000796205375169 2.65867229772e-15)
(9.95780535491 0.00221875846953 2.58760758412e-15)
(9.94808567107 0.00618239501826 1.71254101254e-15)
(9.93011574274 0.0079685140971 1.04571872235e-15)
(9.8783877576 0.00838627653152 6.32294183472e-16)
(9.73758515513 0.00913994063483 4.03224644463e-16)
(9.41466886797 0.0107840202751 2.65418798029e-16)
(8.79440034488 0.0138047657292 1.69493980491e-16)
(7.79539097815 0.0172673738601 6.45588786954e-17)
(6.51753567751 0.0137000754188 -1.0231840222e-16)
(10.0072600677 -0.00374035418067 2.74709778046e-15)
(9.98308331498 -0.00470529557387 2.58762054216e-15)
(9.96962182985 -0.00394892365575 1.75134653615e-15)
(9.94728822051 -0.00565786192541 1.07702237061e-15)
(9.88805532599 -0.0088496157688 6.57933180953e-16)
(9.73753558746 -0.0121935926857 4.17565143495e-16)
(9.40174739116 -0.0152820419955 2.69788924856e-16)
(8.76805045762 -0.0168613499998 1.65830001098e-16)
(7.76135152969 -0.0179740772605 5.20663224288e-17)
(6.4944450652 -0.0236843599755 -1.34036521126e-16)
(10.0356763067 -0.0067107014599 2.76007249619e-15)
(10.0041708597 -0.0123436677679 2.62762153955e-15)
(9.98714788843 -0.0157079094469 1.78793013369e-15)
(9.96116731285 -0.021268417782 1.10726942065e-15)
(9.89598750858 -0.0277719923225 6.82275299518e-16)
(9.73695150673 -0.0344073888433 4.27775243715e-16)
(9.39055147121 -0.0405371711384 2.74434456136e-16)
(8.74504881574 -0.04439145892 1.64847098085e-16)
(7.73596449298 -0.0483955252623 3.53210168274e-17)
(6.48955768879 -0.0540610930575 -1.71159498375e-16)
(10.0647399607 -0.00911821326493 2.72567755472e-15)
(10.0244888644 -0.0193873634153 2.670399272e-15)
(10.0037653452 -0.0269142148572 1.83573041667e-15)
(9.97478362321 -0.0359054102584 1.17144783694e-15)
(9.90482881757 -0.0451812176486 7.214029704e-16)
(9.7381398422 -0.0537258607985 4.53658128807e-16)
(9.3825622396 -0.060720750953 2.92599528232e-16)
(8.72838507429 -0.0649241886817 1.55181813939e-16)
(7.72492857464 -0.0688916528837 2.38559452509e-17)
(6.50423600255 -0.0753938806237 -1.99361448126e-16)
(10.0981735645 -0.0108978029094 2.66773977525e-15)
(10.0482585243 -0.0251421340071 2.70776062059e-15)
(10.0234755173 -0.0360152149038 1.88157341417e-15)
(9.99170658605 -0.0475428865319 1.11667840361e-15)
(9.91754539409 -0.0586067125303 6.95029795042e-16)
(9.74396236097 -0.0677202216391 4.32150977968e-16)
(9.38024892163 -0.0738377099668 2.68122403658e-16)
(8.72115956879 -0.0765435323044 1.85911599713e-16)
(7.72814182247 -0.0782320470164 -2.03675778658e-17)
(6.5333178069 -0.0852988218831 -2.65807961333e-16)
(10.1389339062 -0.0114349138511 2.76139263629e-15)
(10.078702865 -0.0289539746774 2.77059148508e-15)
(10.0495269856 -0.0423947375464 1.93937662411e-15)
(10.0148502494 -0.0554152774783 1.52124086037e-15)
(9.93627366424 -0.0672328627217 1.24958594914e-15)
(9.75564958828 -0.0758631940575 7.20669410121e-16)
(9.38400200389 -0.0800748133376 4.86665577081e-16)
(8.72345231409 -0.0798834280294 1.36066722916e-17)
(7.74615109103 -0.0787081171049 2.01237672591e-16)
(6.57879150165 -0.0845803755018 -4.56000022765e-17)
(10.1883862157 -0.0108110329749 2.73714024598e-15)
(10.1178222821 -0.0303353814685 2.86626419584e-15)
(10.0835535018 -0.046009877237 2.04510411401e-15)
(10.0458440369 -0.0597641359132 1.61722073611e-15)
(9.96211692241 -0.0718798992754 1.01503621433e-15)
(9.77378308415 -0.0796243049972 6.88613511409e-16)
(9.39375110938 -0.0816111455396 4.48790712494e-16)
(8.73204827709 -0.0780097671803 9.56728708542e-17)
(7.77299394411 -0.0733502452076 1.26216693443e-16)
(6.63912839838 -0.0773146585472 -5.55014217026e-17)
(10.2441643978 -0.00813206923864 2.7813779539e-15)
(10.1669633606 -0.0285974956829 2.94385422636e-15)
(10.126462773 -0.0469130281367 2.15255488308e-15)
(10.0850949723 -0.0613407909262 1.60758414908e-15)
(9.99581298815 -0.0738963933242 7.93113875144e-16)
(9.79852327499 -0.0811983334907 5.78043289606e-16)
(9.40823442867 -0.0815698887486 3.33889642907e-16)
(8.74457501001 -0.0749870722687 2.30361606159e-16)
(7.80371215337 -0.0663007993106 -7.20496828105e-17)
(6.70529305959 -0.0678826711395 -2.87041093823e-16)
(10.2939909601 -0.0039930774512 2.80586921154e-15)
(10.2250593295 -0.0240969992485 3.00502172123e-15)
(10.1793411885 -0.044952233227 2.22889233213e-15)
(10.133339872 -0.0602804836295 1.67032265608e-15)
(10.0384564129 -0.0738280719933 9.85673579548e-16)
(9.83072101245 -0.0815632944717 6.8999933986e-16)
(9.42777916694 -0.0823739200865 3.937717716e-16)
(8.75822447371 -0.0744402943946 2.39272175471e-16)
(7.83070052382 -0.0631410310516 -5.88827662292e-17)
(6.76780775236 -0.0625351539183 -3.11235001585e-16)
(10.3293058715 0.00371365092435 2.81804047998e-15)
(10.2877675348 -0.0150787313234 3.04806045961e-15)
(10.2414920275 -0.0390736984768 2.29691485309e-15)
(10.1911541949 -0.0553222797448 1.71514176379e-15)
(10.0909774963 -0.0702749301287 1.101322988e-15)
(9.87181623178 -0.0796522609542 7.06907690003e-16)
(9.45423884528 -0.0832160987201 4.26915957525e-16)
(8.77354154774 -0.0788386306712 2.95507772988e-16)
(7.85204541688 -0.0677188213568 -3.05250973116e-17)
(6.82022793366 -0.0626811229952 -3.17010382088e-16)
(10.3431574342 0.0165175866726 2.66248279453e-15)
(10.3439119411 0.00374948612941 2.96937171073e-15)
(10.3069998443 -0.0247499729819 2.34937721982e-15)
(10.2547788174 -0.042154383931 2.07414412439e-15)
(10.1506979961 -0.0595545956165 1.37383859746e-15)
(9.92301427466 -0.072125550673 1.13640379037e-15)
(9.49165263017 -0.0818278215475 5.91865521109e-16)
(8.7957318056 -0.0846432848716 -2.28890718098e-17)
(7.8693401797 -0.0827917163778 1.19867913649e-16)
(6.85825107657 -0.0818922298164 -1.62568498261e-16)
(10.2645299575 0.0369548874055 2.67923017759e-15)
(10.367841399 0.0403072111772 2.84573257336e-15)
(10.3600590067 0.0067060161757 2.45085218767e-15)
(10.3146998342 -0.0126810585025 2.58679445787e-15)
(10.2096967755 -0.0337465577569 1.93403601456e-15)
(9.98357333041 -0.0516299073144 1.92255181264e-15)
(9.5451325219 -0.0697374699765 1.01413171814e-15)
(8.83559704537 -0.0871776665473 -4.13982365603e-16)
(7.89573271205 -0.104020000716 4.68483380531e-16)
(6.89291149946 -0.118730412872 1.96108966764e-16)
(10.0616714286 0.0625928735768 2.62877957068e-15)
(10.3520240168 0.0927459962158 2.65188785211e-15)
(10.3781239489 0.0656558456413 2.57927050806e-15)
(10.3546498953 0.0449016856083 2.46743723763e-15)
(10.2577887197 0.0212013921541 1.95147752907e-15)
(10.0475721957 -0.00342570416446 1.57112561083e-15)
(9.61820412024 -0.031439117985 1.07230588333e-15)
(8.9106237437 -0.0676217082398 1.24042959607e-16)
(7.96147259314 -0.113758791846 4.86389905405e-16)
(6.94897925601 -0.160478016968 2.07724166804e-16)
(9.69327299194 0.0895039466537 2.00962987431e-15)
(10.2023306663 0.157719041143 2.67592737526e-15)
(10.3701898879 0.15163860677 2.72835317298e-15)
(10.3753803372 0.138587223739 2.62949635799e-15)
(10.2849545315 0.11696132487 2.1887205005e-15)
(10.1012244196 0.0910081747649 1.66126372358e-15)
(9.70499858076 0.0555142752468 1.1106542287e-15)
(9.03270133984 0.00136224911674 3.24653888013e-16)
(8.0994013575 -0.079715769491 4.93768205739e-16)
(7.07280109358 -0.17201291832 2.6658863879e-16)
(9.14567567307 0.107989967297 2.57300669425e-15)
(9.89813976424 0.22294430861 2.92614407024e-15)
(10.2158616654 0.252927030796 2.62481514223e-15)
(10.3040717284 0.264535127713 2.44737033137e-15)
(10.2804974263 0.256642547867 2.15369862737e-15)
(10.118204876 0.239651379241 1.65085328706e-15)
(9.77855532828 0.206404094502 1.09341850583e-15)
(9.18237458708 0.144990972298 5.01459982109e-16)
(8.32090998038 0.0389787730952 4.88918817302e-16)
(7.3109652059 -0.0992722904809 3.05299391066e-16)
(8.43581275145 0.11520541566 2.51362620115e-15)
(9.41741992685 0.280709324688 2.77796177513e-15)
(9.9083739948 0.355372781212 2.57046744837e-15)
(10.1071550079 0.404462973664 2.72684548733e-15)
(10.1507087939 0.426972711609 2.40610862888e-15)
(10.0554805684 0.43236485839 1.9460676735e-15)
(9.79131723054 0.416295365209 1.45171912598e-15)
(9.30465814004 0.366332055393 5.6575603015e-16)
(8.57146456949 0.261448302997 6.23599228233e-16)
(7.65339003047 0.105804147604 4.97049183611e-16)
(7.61416629958 0.124101231351 2.23212873767e-15)
(8.76884979799 0.316750855093 1.95363001643e-15)
(9.42617811721 0.441511978502 2.41654515555e-15)
(9.74959506026 0.53721290949 3.10106045328e-15)
(9.88043268171 0.601324644314 3.16744794661e-15)
(9.86280296067 0.642407716848 2.63067939775e-15)
(9.6898131098 0.658796069355 2.04639760981e-15)
(9.32833818735 0.64006808496 8.46805406178e-17)
(8.75519081124 0.565604678749 1.13133685924e-15)
(7.99531059964 0.434536021047 1.32297864572e-15)
(6.74979075145 0.115119039694 2.0524689328e-15)
(7.99392114741 0.332300300365 1.56294199916e-15)
(8.78179696205 0.497431683068 2.12286609002e-15)
(9.22340994065 0.639804832657 2.61445001602e-15)
(9.44820291301 0.750868726909 2.72748264697e-15)
(9.51458699302 0.836015152154 2.40845220884e-15)
(9.43468520987 0.895376605869 1.94003267139e-15)
(9.19563237744 0.921802139178 7.1856008973e-16)
(8.78308417099 0.898828772562 1.03054118411e-15)
(8.20674189765 0.824181390887 1.12333693077e-15)
(5.90633790496 0.117144065671 1.15981269534e-15)
(7.15188109368 0.32348442709 1.13416251556e-15)
(8.01549749098 0.517937499463 1.64596953735e-15)
(8.54974831431 0.698647339878 1.77642163446e-15)
(8.86032065632 0.85333565628 2.09370603882e-15)
(9.00684992854 0.983234538438 2.13134133145e-15)
(9.01310596958 1.08859776232 1.59216694694e-15)
(8.88180578799 1.16505764134 5.59605585949e-16)
(8.60907277546 1.20172240051 1.48442560379e-15)
(8.20302987632 1.19588634527 1.52357355662e-15)
(5.13348263505 0.0941239597425 1.17436872742e-15)
(6.30580440464 0.301686857159 7.63754348876e-16)
(7.18541939611 0.505749547444 8.7404732182e-16)
(7.77432645318 0.7105915316 -8.3343576872e-17)
(8.1493292918 0.89847369973 1.22662430249e-16)
(8.36251840923 1.06635324723 5.0534663781e-16)
(8.44122873569 1.2134292513 4.93785291321e-16)
(8.39680860646 1.33670865659 8.21527637509e-16)
(8.23419301536 1.42961654122 8.3412908645e-16)
(7.96728662309 1.48839810245 8.78027179921e-16)
(4.45278151241 0.0903033337815 8.28091854068e-16)
(5.50718493856 0.267270919713 3.45334814176e-16)
(6.35018328491 0.469219653587 3.99092659401e-16)
(6.95248311386 0.682752689222 3.54903679237e-16)
(7.36346361871 0.88971559696 -6.49687865751e-17)
(7.62236907693 1.08353219908 1.26582600936e-16)
(7.75455654761 1.26191359524 2.26979226818e-16)
(7.77544213338 1.42216465927 1.56569473821e-16)
(7.69480867541 1.56027821715 6.17770443229e-16)
(7.53321544117 1.6706104498 7.73204028015e-16)
(3.87203589484 0.0664687323291 1.06637003464e-15)
(4.78812630488 0.232676331531 6.04546082623e-16)
(5.55804715814 0.418757206847 -1.41793682014e-16)
(6.13729375475 0.627247799636 -1.80189267654e-15)
(6.55452430878 0.838641439935 -1.80431033601e-15)
(6.83627089684 1.04481863425 -9.71195683908e-16)
(7.00197482959 1.24154788791 -1.26991415562e-15)
(7.06636131401 1.42579870661 -6.79082369375e-16)
(7.04228226898 1.59443071576 0)
(6.95736869455 1.73934247774 1.27033155186e-16)
(3.38210268059 0.0642889678393 3.56047307125e-16)
(4.16265255594 0.196644649531 -3.15357448295e-16)
(4.83860715097 0.363895780062 -8.64784886098e-16)
(5.36822284107 0.557391305976 -2.58495438408e-15)
(5.76672722304 0.761521972053 -2.41643449642e-15)
(6.04898959989 0.967061813946 -2.33867697615e-15)
(6.22855641268 1.16899777414 -2.10479445592e-15)
(6.31805053374 1.36356757068 -1.42775541409e-15)