0 	10.0001060265 	1.61770291742e-18 	3.00500634746e-19
0.100401606426 	10.0006240115 	-6.02242481753e-09 	3.27389809434e-19
0.200803212851 	10.0016895601 	-4.31199788208e-09 	3.37628813063e-19
0.301204819277 	10.0027475077 	-1.43504441607e-09 	3.48738668411e-19
0.401606425703 	10.0032438219 	-1.2714087254e-09 	3.5552821423e-19
0.502008032129 	10.0034249508 	-1.29353277314e-09 	3.57243608403e-19
0.602409638554 	10.0036741557 	-4.95046914368e-10 	3.58666561795e-19
0.70281124498 	10.0038642894 	8.14279234339e-10 	3.60079975002e-19
0.803212851406 	10.0037492761 	2.5675441203e-09 	3.61449251803e-19
0.903614457831 	10.0031531988 	4.94668910364e-09 	3.62764922715e-19
1.00401606426 	10.0019273804 	8.17508910567e-09 	3.63956155156e-19
1.10441767068 	9.99989236156 	1.30481778219e-08 	3.64902986557e-19
1.20481927711 	9.99688053386 	2.04439357774e-08 	3.65866078628e-19
1.30522088353 	9.99281558467 	2.98427276975e-08 	3.66898507725e-19
1.40562248996 	9.98773730204 	3.77549252612e-08 	3.67815404725e-19
1.50602409639 	9.98180107725 	3.95642010055e-08 	3.70116051684e-19
1.60642570281 	9.97521322996 	3.5289768121e-08 	3.69794755529e-19
1.70682730924 	9.96810468883 	2.72503842309e-08 	3.69796054928e-19
1.80722891566 	9.96047679921 	2.14189686408e-08 	3.69521097431e-19
1.90763052209 	9.95232859259 	2.23480944611e-08 	3.75728674884e-19
2.00803212851 	9.94424363634 	3.16743059594e-08 	3.74449990767e-19
2.10843373494 	9.93789793962 	4.1575769659e-08 	3.73745696118e-19
2.20883534137 	9.93514884286 	4.33372472367e-08 	3.7312023914e-19
2.30923694779 	9.93641736145 	3.37893591558e-08 	3.72728232676e-19
2.40963855422 	9.93919125773 	1.23193465967e-08 	3.72642599426e-19
2.51004016064 	9.93830089985 	-1.65723558809e-08 	3.72886882988e-19
2.61044176707 	9.92925884214 	-4.37141494006e-08 	3.7304278227e-19
2.71084337349 	9.91121352582 	-5.75236885727e-08 	3.72736165236e-19
2.81124497992 	9.88743825217 	-4.87623832684e-08 	3.72473524781e-19
2.91164658635 	9.86461994313 	-1.6779686959e-08 	3.7207383536e-19
3.01204819277 	9.85017299622 	3.0531459628e-08 	3.72004762746e-19
3.1124497992 	9.85026646144 	7.54332303824e-08 	3.72542504913e-19
3.21285140562 	9.8656862819 	1.00986567311e-07 	3.73299733943e-19
3.31325301205 	9.89296215423 	9.40179832566e-08 	3.74837158478e-19
3.41365461847 	9.92739067719 	5.04497623587e-08 	3.75643689172e-19
3.5140562249 	9.96299898243 	-2.38870707999e-08 	3.7914877293e-19
3.61445783133 	9.9959206699 	-1.12214898218e-07 	3.82790927096e-19
3.71485943775 	10.0257387768 	-2.01328709776e-07 	3.84076211157e-19
3.81526104418 	10.054976968 	-2.73556814151e-07 	3.83922923965e-19
3.9156626506 	10.0872670769 	-3.26946536402e-07 	3.83155032899e-19
4.01606425703 	10.1257996662 	-3.43060478225e-07 	3.87122618184e-19
4.11646586345 	10.172323568 	-3.24343339246e-07 	3.87793047509e-19
4.21686746988 	10.2251817756 	-2.4397136684e-07 	3.90708602301e-19
4.31726907631 	10.2764293608 	-1.19796885033e-07 	3.92983346149e-19
4.41767068273 	10.3159926026 	1.11413770027e-07 	3.94537367257e-19
4.51807228916 	10.3303791012 	4.95546469071e-07 	3.90302770087e-19
4.61847389558 	10.2778439122 	1.10868883764e-06 	3.8922656521e-19
4.71887550201 	10.1091881247 	1.87785771037e-06 	3.8264495682e-19
4.81927710843 	9.78918480681 	2.68522064459e-06 	3.54453784218e-19
4.91967871486 	9.29574954195 	3.23982238142e-06 	3.56528177407e-19
5.02008032129 	8.63697904932 	3.45629407489e-06 	3.3495085562e-19
5.12048192771 	7.85232494238 	3.72317870776e-06 	3.02926987781e-19
5.22088353414 	7.0036509057 	3.45370269724e-06 	2.72034564286e-19
5.32128514056 	6.15604707146 	3.51445578985e-06 	2.19783574733e-19
5.42168674699 	5.36229503024 	2.82382631493e-06 	1.96368207164e-19
5.52208835341 	4.65381491698 	2.7092031716e-06 	1.64689833709e-19
5.62248995984 	4.04201040286 	1.99413790054e-06 	1.5345385377e-19
5.72289156627 	3.52399920136 	1.92874247578e-06 	1.16577230754e-19
5.82329317269 	3.0886785112 	1.37842059165e-06 	8.92788382263e-20
5.92369477912 	2.72269633007 	1.37548977612e-06 	6.76553731925e-20
6.02409638554 	2.41328555092 	9.80002430324e-07 	5.46272092055e-20
6.12449799197 	2.15000367588 	9.95225041703e-07 	5.55008629232e-20
6.22489959839 	1.92556547703 	7.10092851892e-07 	3.20099207791e-20
6.32530120482 	1.73467676091 	7.23149174346e-07 	3.71031742862e-20
6.42570281124 	1.57313321482 	5.09647743494e-07 	3.19341334505e-20
6.52610441767 	1.43707334714 	5.17083671269e-07 	2.55003318263e-20
6.6265060241 	1.322569558 	3.64322421997e-07 	1.85120500782e-20
6.72690763052 	1.22588044574 	3.73984544665e-07 	2.32605196855e-20
6.82730923695 	1.14334204944 	2.69249166788e-07 	1.05299283252e-20
6.92771084337 	1.07176252735 	2.80714961946e-07 	1.192388848e-20
7.0281124498 	1.00837093348 	2.13071661583e-07 	1.03169642152e-20
7.12851405622 	0.951039236716 	2.24869416218e-07 	7.69861071653e-21
7.22891566265 	0.898115618125 	1.81678653626e-07 	5.16274895471e-21
7.32931726908 	0.848528515417 	1.96532385286e-07 	4.36919610192e-21
7.4297188755 	0.801560368333 	1.62653597213e-07 	1.31746322425e-21
7.53012048193 	0.756830509627 	1.79117256338e-07 	7.01826933678e-21
7.63052208835 	0.714139842557 	1.47751001165e-07 	4.66782077693e-21
7.73092369478 	0.673411079824 	1.63992390354e-07 	7.09651802165e-21
7.8313253012 	0.634622622515 	1.33669201168e-07 	3.77000753954e-22
7.93172690763 	0.597766964156 	1.48535556718e-07 	3.66227293688e-21
8.03212851406 	0.562834226108 	1.19853671136e-07 	2.43243200886e-21
8.13253012048 	0.529783293583 	1.33326731644e-07 	6.24399313842e-21
8.23293172691 	0.498570710576 	1.06798506877e-07 	8.07830787258e-21
8.33333333333 	0.4691382958 	1.19011943692e-07 	1.12711504701e-20
8.43373493976 	0.441418804143 	9.4786629159e-08 	1.21931660242e-20
8.53413654618 	0.41534656534 	1.05474884004e-07 	1.27597356462e-20
8.63453815261 	0.390838619214 	8.38043411648e-08 	1.31949662974e-20
8.73493975904 	0.367806094607 	9.33282623927e-08 	1.19566903108e-20
8.83534136546 	0.346152572952 	7.41339415218e-08 	1.29074912949e-20
8.93574297189 	0.32578931529 	8.27053530413e-08 	1.19018146199e-20
9.03614457831 	0.306627623423 	6.56510405437e-08 	1.30917885618e-20
9.13654618474 	0.288587783719 	7.35075378219e-08 	1.09429266093e-20
9.23694779116 	0.271594569399 	5.82777583809e-08 	1.12365949271e-20
9.33734939759 	0.255585249024 	6.5489091812e-08 	1.04833591101e-20
9.43775100402 	0.240502418192 	5.17630702658e-08 	1.03133473092e-20
9.53815261044 	0.22629695522 	5.83348023522e-08 	9.48114367618e-21
9.63855421687 	0.212922744625 	4.59344215015e-08 	8.84845355789e-21
9.73895582329 	0.20033928276 	5.18468279797e-08 	8.00881645031e-21
9.83935742972 	0.188506513309 	4.06761703633e-08 	7.91469161475e-21
9.93975903614 	0.177386703119 	4.59487383219e-08 	7.62775838328e-21
10.0401606426 	0.166941046835 	3.59520873009e-08 	7.58203697481e-21
10.140562249 	0.157132538883 	4.06566078759e-08 	6.42387911207e-21
10.2409638554 	0.14792351314 	3.17408984035e-08 	6.289936164e-21
10.3413654618 	0.139278375298 	3.59389477662e-08 	5.47160281456e-21
10.4417670683 	0.131161467913 	2.80169885713e-08 	5.65936588461e-21
10.5421686747 	0.123539338773 	3.17737302098e-08 	5.21046851332e-21
10.6425702811 	0.116379137929 	2.47490755486e-08 	5.07199011502e-21
10.7429718876 	0.109650539533 	2.81210562149e-08 	4.39549263616e-21
10.843373494 	0.1033243552 	2.18954397636e-08 	4.3384189464e-21
10.9437751004 	0.0973738866703 	2.49265406224e-08 	3.92053322905e-21
11.0441767068 	0.0917737718582 	1.94068317395e-08 	4.072539169e-21
11.1445783133 	0.0865009930672 	2.21391184844e-08 	3.60754096556e-21
11.2449799197 	0.0815338620818 	1.72333702392e-08 	3.59123881131e-21
11.3453815261 	0.0768527671006 	1.97055864433e-08 	3.1380149444e-21
11.4457831325 	0.072439627408 	1.53271104627e-08 	2.84938485129e-21
11.546184739 	0.068278676955 	1.75799857135e-08 	2.7272482213e-21
11.6465863454 	0.0643552666952 	1.36367312991e-08 	2.64434566832e-21
11.7469879518 	0.0606557718283 	1.56655020275e-08 	2.34121140692e-21
11.8473895582 	0.0571671002867 	1.21360517951e-08 	2.33558672257e-21
11.9477911647 	0.0538771244895 	1.39659874035e-08 	2.17322752516e-21
12.0481927711 	0.0507746977605 	1.08002090603e-08 	2.0814166497e-21
12.1485943775 	0.04784959919 	1.2440935953e-08 	1.89650620749e-21
12.2489959839 	0.0450917245022 	9.60745641113e-09 	1.88032705938e-21
12.3493975904 	0.042490902276 	1.10689396751e-08 	1.73745110093e-21
12.4497991968 	0.0400374277227 	8.55592453447e-09 	1.76349176423e-21
12.5502008032 	0.0377228332153 	9.87652287734e-09 	1.56276481642e-21
12.6506024096 	0.0355396463554 	7.617300986e-09 	1.49777137597e-21
12.7510040161 	0.0334809629937 	8.79127776073e-09 	1.33713968146e-21
12.8514056225 	0.0315401225713 	6.77358082637e-09 	1.39527953426e-21
12.9518072289 	0.0297106054583 	7.8168944601e-09 	1.27457379394e-21
13.0522088353 	0.0279858320073 	6.02236968221e-09 	1.19011143118e-21
13.1526104418 	0.0263593152916 	6.95637254741e-09 	1.07504292899e-21
13.2530120482 	0.0248254291484 	5.35909471343e-09 	9.45827148433e-22
13.3534136546 	0.0233793178046 	6.18598078765e-09 	9.69124762848e-22
13.453815261 	0.0220162654741 	4.76122521509e-09 	1.05336777644e-21
13.5542168675 	0.0207316255305 	5.49521079055e-09 	8.39852111022e-22
13.6546184739 	0.0195208993234 	4.22857490273e-09 	8.70390887932e-22
13.7550200803 	0.0183796979867 	4.88197957518e-09 	7.36034600465e-22
13.8554216867 	0.0173041338801 	3.75514738661e-09 	7.20507220883e-22
13.9558232932 	0.0162906338908 	4.33375222212e-09 	6.56724870093e-22
14.0562248996 	0.015335622273 	3.33264154279e-09 	6.69955008484e-22
14.156626506 	0.0144356518546 	3.84726229106e-09 	6.01141319695e-22
14.2570281124 	0.0135877551517 	2.95657914221e-09 	5.67317723454e-22
14.3574297189 	0.0127890813167 	3.41141810981e-09 	5.01520969649e-22
14.4578313253 	0.0120367478481 	2.62111485267e-09 	5.20847337065e-22
14.5582329317 	0.0113280118798 	3.02557273355e-09 	4.74440175656e-22
14.6586345382 	0.010660534923 	2.32293785027e-09 	4.83693017099e-22
14.7590361446 	0.0100320894945 	2.67979525144e-09 	3.93623465183e-22
14.859437751 	0.00944042731629 	2.0565469518e-09 	4.09405465801e-22
14.9598393574 	0.00888330877118 	2.37388596626e-09 	3.50775900276e-22
15.0602409639 	0.00835874146293 	1.82137706776e-09 	3.64361572291e-22
15.1606425703 	0.00786487865279 	2.10250209353e-09 	3.32760390695e-22
15.2610441767 	0.00739976235902 	1.61204952671e-09 	3.18786809499e-22
15.3614457831 	0.00696258470859 	1.84516092946e-09 	2.84690472313e-22
15.4618473896 	0.00655077240502 	1.537440998e-09 	2.7652000848e-22
15.562248996 	0.00616199393944 	1.3203405795e-09 	2.60660599677e-22
15.6626506024 	0.00579695500013 	1.53932518792e-09 	2.24539097581e-22
15.7630522088 	0.0054536647178 	1.19018850295e-09 	2.37312422679e-22
15.8634538153 	0.005130403191 	1.37305964324e-09 	2.17115063177e-22
15.9638554217 	0.00482602096 	1.05232227753e-09 	1.80692776017e-22
16.0642570281 	0.00454000381078 	1.19929059424e-09 	1.40622996374e-22
16.1646586345 	0.00427061216016 	1.00800694062e-09 	-3.74717973495e-23
16.265060241 	0.00401634257649 	8.58849293896e-10 	1.43778914165e-22
16.3654618474 	0.00377772019644 	1.01473883765e-09 	2.77254087992e-22
16.4658634538 	0.0035533138249 	7.73875146569e-10 	2.30635483447e-22
16.5662650602 	0.00334205686348 	8.96417291495e-10 	1.48716803317e-22
16.6666666667 	0.00314328498541 	6.84095461191e-10 	2.51665492319e-23
16.7670682731 	0.00295625168986 	7.92345708216e-10 	1.18230076774e-22
16.8674698795 	0.00278030495828 	6.0527737373e-10 	2.30533816745e-22
16.9678714859 	0.00261477671813 	7.01389240749e-10 	1.58373882329e-22
17.0682730924 	0.00245906126416 	5.35452285881e-10 	1.14847643478e-22
17.1686746988 	0.00231256675063 	6.20839935911e-10 	3.37882720189e-23
17.2690763052 	0.00217476474325 	4.73710494963e-10 	9.05535276885e-23
17.3694779116 	0.00204513569977 	5.49403683993e-10 	1.54919162969e-22
17.4698795181 	0.00192320446697 	4.19049888498e-10 	1.30257802541e-22
17.5702811245 	0.00180850285725 	4.86292968244e-10 	7.64008435211e-23
17.6706827309 	0.0017006139702 	3.70760208967e-10 	1.43432775857e-23
17.7710843373 	0.00159912938433 	4.30425309721e-10 	6.48579879683e-23
17.8714859438 	0.00150368286082 	3.27960738487e-10 	1.2816144137e-22
17.9718875502 	0.00141390940512 	3.80791414001e-10 	8.55533589831e-23
18.0722891566 	0.00132948089805 	2.90081679738e-10 	6.88369633591e-23
18.1726907631 	0.00125007333954 	3.36868049272e-10 	2.18080251379e-23
18.2730923695 	0.0011753984157 	2.56543169345e-10 	5.52786409056e-23
18.3734939759 	0.00110516999074 	2.97918039441e-10 	8.57335614061e-23
18.4738955823 	0.0010391315281 	2.26839334035e-10 	7.42965884158e-23
18.5742971888 	0.000977027878106 	2.63424578071e-10 	4.19656421873e-23
18.6746987952 	0.00091863328197 	2.00539414478e-10 	4.49352025437e-24
18.7751004016 	0.000863722787865 	2.32824348421e-10 	3.3833480119e-23
18.875502008 	0.000812096305379 	1.77226150658e-10 	6.43236818019e-23
18.9759036145 	0.000763553450613 	2.05684735562e-10 	4.60570037368e-23
19.0763052209 	0.000717916784134 	1.5657714153e-10 	3.15537491359e-23
19.1767068273 	0.000675008515052 	1.81632333041e-10 	3.47425191046e-24
19.2771084337 	0.000634671482801 	1.38285750501e-10 	2.64259394289e-23
19.3775100402 	0.000596748527591 	1.60308888272e-10 	4.41974645187e-23
19.4779116466 	0.000561100996983 	1.22079685248e-10 	3.68229730839e-23
19.578313253 	0.000527588870286 	1.41434598386e-10 	2.39964302585e-23
19.6787148594 	0.000496089312426 	1.07729849735e-10 	8.07812225912e-24
19.7791164659 	0.000466478674611 	1.2469850951e-10 	1.97961415673e-23
19.8795180723 	0.000438648465973 	9.50171740815e-11 	3.57705610276e-23
19.9799196787 	0.000412488881885 	1.09880155905e-10 	2.63166772471e-23
20.0803212851 	0.000387903914629 	8.37649009857e-11 	1.87485166018e-23
20.1807228916 	0.000364796368718 	9.67725493704e-11 	7.28463645722e-24
20.281124498 	0.000343081615192 	7.38049742506e-11 	1.56943086301e-23
20.3815261044 	0.000322673954301 	8.51618688469e-11 	2.09912995093e-23
20.4819277108 	0.000303493558196 	6.49838755917e-11 	1.98895973213e-23
20.5823293173 	0.000285507896014 	7.48125983491e-11 	1.23882499266e-23
20.6827309237 	0.000268564192757 	5.91389102422e-11 	4.78679268182e-24
20.7831325301 	0.000252599624116 	5.26707702001e-11 	1.07427089308e-23
20.8835341365 	0.000237703401126 	6.13228483478e-11 	1.56800465123e-23
20.983935743 	0.000223658544079 	5.12176651291e-11 	1.31565884566e-23
21.0843373494 	0.000210431144696 	4.36530482709e-11 	9.47559428399e-24
21.1847389558 	0.000198060038203 	5.14259730811e-11 	2.66810791843e-24
21.2851405622 	0.000186429608244 	3.89252485962e-11 	2.97532194315e-24
21.3855421687 	0.000175508896764 	4.46452421412e-11 	6.77020188812e-25
21.4859437751 	0.000165256246684 	3.40996140904e-11 	2.93009446744e-24
21.5863453815 	0.000155633761445 	3.89091833958e-11 	3.23197977392e-24
21.686746988 	0.000146605652375 	2.98921976369e-11 	-1.30796740758e-24
21.7871485944 	0.000138135887764 	3.4089983891e-11 	2.37780673192e-24
21.8875502008 	0.000130193625349 	2.61852614906e-11 	9.57047328771e-25
21.9879518072 	0.000122748066262 	2.97797987871e-11 	2.63779474003e-24
22.0883534137 	0.000115772769693 	2.29039220975e-11 	3.01923497885e-24
22.1887550201 	0.000109240467589 	2.59979487932e-11 	1.70651070593e-24
22.2891566265 	0.000103127791266 	2.00010343818e-11 	2.31089367395e-24
22.3895582329 	9.74104559172e-05 	2.26265840558e-11 	1.08832834502e-24
22.4899598394 	9.20680589818e-05 	1.74300991637e-11 	1.84720306923e-24
22.5903614458 	8.70793083146e-05 	1.96792055758e-11 	2.35401859004e-24
22.6907630522 	8.24262448331e-05 	1.5159381934e-11 	6.38048091567e-25
22.7911646586 	7.80901451085e-05 	1.70866835364e-11 	1.5256749614e-24
22.8915662651 	7.40552134282e-05 	1.31524860372e-11 	6.16341270105e-25
22.9919678715 	7.03048135949e-05 	1.4782383149e-11 	1.71859542042e-24
23.0923694779 	6.68249107865e-05 	1.13823108199e-11 	1.81104319851e-24
23.1927710843 	6.36004826089e-05 	1.27662182896e-11 	7.28961511024e-25
23.2931726908 	6.06186568209e-05 	9.83133107693e-12 	1.39462641157e-24
23.3935742972 	5.78655106044e-05 	1.10043859491e-11 	1.08189556812e-24
23.4939759036 	5.53289294623e-05 	8.48558444798e-12 	1.48190611797e-24
23.59437751 	5.29957279455e-05 	9.49209704223e-12 	1.70756643411e-24
23.6947791165 	5.08535306675e-05 	7.32824535608e-12 	1.05102609988e-24
23.7951807229 	4.88951904268e-05 	8.18936610272e-12 	1.37042084346e-24
23.8955823293 	4.71000354906e-05 	6.5805321004e-12 	9.52762031725e-25
23.9959839357 	4.54610988544e-05 	5.82500730687e-12 	1.29973021463e-24
24.0963855422 	4.39859185647e-05 	6.44940954169e-12 	1.55559187589e-24
24.1967871486 	4.26551312699e-05 	5.03007809123e-12 	1.29864738011e-24
24.297188755 	4.14782870525e-05 	5.22566220079e-12 	1.40052319558e-24
24.3975903614 	4.04529675028e-05 	4.45226078329e-12 	1.39039496035e-24
24.4979919679 	3.95747540577e-05 	3.38459267122e-12 	1.29695746734e-24
24.5983935743 	3.88436624935e-05 	3.52753898831e-12 	1.41780621462e-24
24.6987951807 	3.82348288066e-05 	2.39423747195e-12 	1.26448602647e-24
24.7991967871 	3.7726249422e-05 	2.48522661664e-12 	1.32335658147e-24
24.8995983936 	3.72504562961e-05 	8.77397425945e-13 	1.27359365205e-24
25 	3.70049508326e-05 	4.58827511853e-14 	1.24045823744e-24
